 Entering Gaussian System, Link 0=g16
 Initial command:
 /N/soft/cle7/gaussian/16/g16/l1.exe "/N/scratch/brykim/Gau-34898.inp" -scrdir="/N/scratch/brykim/"
 Entering Link 1 = /N/soft/cle7/gaussian/16/g16/l1.exe PID=     34917.
  
 Copyright (c) 1988-2019, Gaussian, Inc.  All Rights Reserved.
  
 This is part of the Gaussian(R) 16 program.  It is based on
 the Gaussian(R) 09 system (copyright 2009, Gaussian, Inc.),
 the Gaussian(R) 03 system (copyright 2003, Gaussian, Inc.),
 the Gaussian(R) 98 system (copyright 1998, Gaussian, Inc.),
 the Gaussian(R) 94 system (copyright 1995, Gaussian, Inc.),
 the Gaussian 92(TM) system (copyright 1992, Gaussian, Inc.),
 the Gaussian 90(TM) system (copyright 1990, Gaussian, Inc.),
 the Gaussian 88(TM) system (copyright 1988, Gaussian, Inc.),
 the Gaussian 86(TM) system (copyright 1986, Carnegie Mellon
 University), and the Gaussian 82(TM) system (copyright 1983,
 Carnegie Mellon University). Gaussian is a federally registered
 trademark of Gaussian, Inc.
  
 This software contains proprietary and confidential information,
 including trade secrets, belonging to Gaussian, Inc.
  
 This software is provided under written license and may be
 used, copied, transmitted, or stored only in accord with that
 written license.
  
 The following legend is applicable only to US Government
 contracts under FAR:
  
                    RESTRICTED RIGHTS LEGEND
  
 Use, reproduction and disclosure by the US Government is
 subject to restrictions as set forth in subparagraphs (a)
 and (c) of the Commercial Computer Software - Restricted
 Rights clause in FAR 52.227-19.
  
 Gaussian, Inc.
 340 Quinnipiac St., Bldg. 40, Wallingford CT 06492
  
  
 ---------------------------------------------------------------
 Warning -- This program may not be used in any manner that
 competes with the business of Gaussian, Inc. or will provide
 assistance to any competitor of Gaussian, Inc.  The licensee
 of this program is prohibited from giving any competitor of
 Gaussian, Inc. access to this program.  By using this program,
 the user acknowledges that Gaussian, Inc. is engaged in the
 business of creating and licensing software in the field of
 computational chemistry and represents and warrants to the
 licensee that it is not a competitor of Gaussian, Inc. and that
 it will not use this program in any manner prohibited above.
 ---------------------------------------------------------------
  

 Cite this work as:
 Gaussian 16, Revision C.01,
 M. J. Frisch, G. W. Trucks, H. B. Schlegel, G. E. Scuseria, 
 M. A. Robb, J. R. Cheeseman, G. Scalmani, V. Barone, 
 G. A. Petersson, H. Nakatsuji, X. Li, M. Caricato, A. V. Marenich, 
 J. Bloino, B. G. Janesko, R. Gomperts, B. Mennucci, H. P. Hratchian, 
 J. V. Ortiz, A. F. Izmaylov, J. L. Sonnenberg, D. Williams-Young, 
 F. Ding, F. Lipparini, F. Egidi, J. Goings, B. Peng, A. Petrone, 
 T. Henderson, D. Ranasinghe, V. G. Zakrzewski, J. Gao, N. Rega, 
 G. Zheng, W. Liang, M. Hada, M. Ehara, K. Toyota, R. Fukuda, 
 J. Hasegawa, M. Ishida, T. Nakajima, Y. Honda, O. Kitao, H. Nakai, 
 T. Vreven, K. Throssell, J. A. Montgomery, Jr., J. E. Peralta, 
 F. Ogliaro, M. J. Bearpark, J. J. Heyd, E. N. Brothers, K. N. Kudin, 
 V. N. Staroverov, T. A. Keith, R. Kobayashi, J. Normand, 
 K. Raghavachari, A. P. Rendell, J. C. Burant, S. S. Iyengar, 
 J. Tomasi, M. Cossi, J. M. Millam, M. Klene, C. Adamo, R. Cammi, 
 J. W. Ochterski, R. L. Martin, K. Morokuma, O. Farkas, 
 J. B. Foresman, and D. J. Fox, Gaussian, Inc., Wallingford CT, 2019.
 
 ******************************************
 Gaussian 16:  ES64L-G16RevC.01  3-Jul-2019
                 7-Feb-2022 
 ******************************************
 %chk=1.chk
 %NProcShared=2
 Will use up to    2 processors via shared memory.
 --------------------------------------------------
 # AM1 nosymm Force iop(1/10=10,7/29=2) iop(2/12=1)
 --------------------------------------------------
 1/10=10,30=1,38=1/1,3;
 2/12=1,15=1,17=6,18=5,40=1/2;
 3/5=2,25=1,41=700000,71=1/1,2,3;
 4/35=1/1;
 5/5=2,35=1,38=5/2;
 6/7=2,8=2,9=2,10=2,28=1/1;
 7/29=2,30=1/1,2,3,16;
 1/10=10,30=1/3;
 99//99;
 ------------------------------
 calculation 1: low-level force
 ------------------------------
 Symbolic Z-matrix:
 Charge =  0 Multiplicity = 1
 N                    -0.04586   5.83566   0.53244 
 C                     1.6184    5.44428   2.68708 
 CL                    2.48146   5.66587   4.17585 
 H                    -0.89426   5.70568  -0.0074 
 H                     0.54962   6.52407   0.05387 
 H                    -0.45307   6.28159   1.36075 
 H                     2.19677   4.66845   2.17897 
 H                     0.53663   5.0845    2.77865 
 H                     1.58828   6.41077   2.17951 
 O-#6--0.834000       -4.50087   10.42633   9.20674 
 H-#6-0.417000        -3.80757   9.78592   9.04724 
 H-#6-0.417000        -4.2593    10.84016   10.03537 
 O-#6--0.834000        6.39616   4.18738  -1.57761 
 H-#6-0.417000         6.1368    4.84806  -0.93538 
 H-#6-0.417000         5.86696   3.42012  -1.3597 
 O-#6--0.834000        12.64241   3.53867   3.65179 
 H-#6-0.417000         11.72901   3.31833   3.46908 
 H-#6-0.417000         13.06295   3.55086   2.792 
 O-#6--0.834000       -2.67546   13.89293  -5.24857 
 H-#6-0.417000        -2.29281   14.51098  -4.6258 
 H-#6-0.417000        -3.60769   13.87995  -5.03176 
 H-#6-0.417000        -6.30575   11.83053   9.2408 
 H-#6-0.417000         3.96093   17.07146  -1.08109 
 O-#6--0.834000       -0.63286   12.10732  -6.61946 
 H-#6-0.417000        -1.29304   12.72154  -6.2983 
 H-#6-0.417000        -1.12955   11.3252  -6.85993 
 O-#6--0.834000        0.26277   9.2853    8.68389 
 H-#6-0.417000        -0.64303   8.9921    8.58492 
 H-#6-0.417000         0.78821   8.55816   8.35013 
 O-#6--0.834000       -0.12862   9.24534   5.3321 
 H-#6-0.417000         0.78855   8.97474   5.37461 
 H-#6-0.417000        -0.31609   9.59565   6.20294 
 O-#6--0.834000        4.29915   2.24485  -4.64333 
 H-#6-0.417000         3.84254   2.68748  -5.35874 
 H-#6-0.417000         5.15175   2.67765  -4.59862 
 O-#6--0.834000       -1.89672   7.74097  -3.84596 
 H-#6-0.417000        -2.52245   8.41285  -4.11667 
 H-#6-0.417000        -1.04154   8.16361  -3.92517 
 O-#6--0.834000       -3.93177   3.13426  -2.31084 
 H-#6-0.417000        -4.82249   3.02402  -1.97813 
 H-#6-0.417000        -3.387     3.18654  -1.52552 
 O-#6--0.834000       -2.08317   6.41278   11.83151 
 H-#6-0.417000        -1.86139   7.33219   11.68413 
 H-#6-0.417000        -1.42315   6.10316   12.45179 
 O-#6--0.834000        2.51072   1.78758   6.64841 
 H-#6-0.417000         1.66981   1.68116   7.09313 
 H-#6-0.417000         2.96112   2.46955   7.1467 
 O-#6--0.834000       -2.04402  -1.0606   -2.78522 
 H-#6-0.417000        -2.72741  -1.6154   -3.16127 
 H-#6-0.417000        -1.22393  -1.46135  -3.07344 
 H-#6-0.417000         9.84301   13.95203  -0.65937 
 O-#6--0.834000        4.01222   3.94587   7.50342 
 H-#6-0.417000         4.81619   3.52599   7.80931 
 H-#6-0.417000         3.46385   4.01246   8.28514 
 O-#6--0.834000       -6.2115    2.19891   6.50686 
 H-#6-0.417000        -5.52722   2.79256   6.19772 
 H-#6-0.417000        -5.9076    1.32818   6.25052 
 O-#6--0.834000        0.42938  -1.53822   8.63123 
 H-#6-0.417000         0.10987  -0.64378   8.5124 
 H-#6-0.417000         0.73818  -1.56442   9.53688 
 O-#6--0.834000        1.67882  -2.0947    1.35033 
 H-#6-0.417000         1.13049  -1.83751   0.6091 
 H-#6-0.417000         1.40167  -2.98765   1.55542 
 O-#6--0.834000        8.51664   0.26707   3.52113 
 H-#6-0.417000         7.62544   0.35604   3.18337 
 H-#6-0.417000         8.65191   1.05252   4.05123 
 O-#6--0.834000        3.70418  -5.10794   4.1042 
 H-#6-0.417000         4.07364  -4.2482    4.30568 
 O-#6--0.834000        3.44356   1.85445   12.17532 
 H-#6-0.417000         2.94478   1.35837   12.82444 
 H-#6-0.417000         3.68187   2.6655    12.62437 
 O-#6--0.834000        5.33804   1.48165  -0.98546 
 H-#6-0.417000         4.54753   2.02072  -0.9585 
 H-#6-0.417000         5.18795   0.87153  -1.70757 
 O-#6--0.834000        1.71405   11.36993   9.99225 
 H-#6-0.417000         0.77717   11.56276   10.02826 
 H-#6-0.417000         1.77868   10.59751   9.43062 
 O-#6--0.834000       -5.44566   13.40166   0.43094 
 H-#6-0.417000        -4.59287   13.16089   0.79291 
 H-#6-0.417000        -5.4672    14.35722   0.48268 
 O-#6--0.834000       -0.78202   12.49544  -1.74243 
 H-#6-0.417000        -1.55723   11.93759  -1.67844 
 H-#6-0.417000        -1.122     13.38757  -1.67349 
 O-#6--0.834000        9.38432   3.34955   7.45094 
 H-#6-0.417000         9.86606   2.52304   7.41874 
 H-#6-0.417000         9.8194    3.90623   6.80516 
 O-#6--0.834000        8.39786   7.83844  -7.17374 
 H-#6-0.417000         8.198     7.02347  -7.6343 
 O-#6--0.834000       -2.09602  -3.72388   2.45947 
 H-#6-0.417000        -2.4529   -3.38934   1.63669 
 H-#6-0.417000        -1.69102  -2.9615    2.87298 
 O-#6--0.834000       -0.45698   1.07646  -8.28593 
 H-#6-0.417000        -0.26266   2.01323  -8.31659 
 H-#6-0.417000        -1.19568   1.00426  -7.6815 
 H-#6-0.417000         2.02254   4.48006   13.24943 
 O-#6--0.834000        5.99648   7.19818  -2.99464 
 H-#6-0.417000         5.74874   7.76714  -3.72343 
 H-#6-0.417000         5.26901   6.58137  -2.91369 
 H-#6-0.417000        -0.10281   1.9631    12.70412 
 O-#6--0.834000        1.20658   11.3017  -3.48919 
 H-#6-0.417000         0.86771   11.70261  -4.28961 
 H-#6-0.417000         0.55189   11.50755  -2.82192 
 O-#6--0.834000       -1.53135  -0.45366   1.39359 
 H-#6-0.417000        -1.20641  -0.83276   2.21024 
 H-#6-0.417000        -1.24722   0.45991   1.42333 
 O-#6--0.834000        5.80347   8.14129   4.10109 
 H-#6-0.417000         5.33644   8.32427   3.28584 
 H-#6-0.417000         5.62514   7.21759   4.27771 
 O-#6--0.834000       -1.91509   5.26965  -7.1099 
 H-#6-0.417000        -2.19072   5.37588  -6.19941 
 H-#6-0.417000        -2.72764   5.10791  -7.58931 
 O-#6--0.834000       -2.64357   0.2002    6.5974 
 H-#6-0.417000        -2.63942  -0.45951   7.29093 
 H-#6-0.417000        -3.52763   0.15943   6.23269 
 O-#6--0.834000        10.3815   10.68542   0.00934 
 H-#6-0.417000         10.72312   10.06977  -0.63912 
 H-#6-0.417000         11.01859   11.39971   0.02106 
 O-#6--0.834000        2.72642   3.02489  -6.85795 
 H-#6-0.417000         1.80251   3.15698  -7.07049 
 H-#6-0.417000         3.0689    2.50799  -7.58717 
 O-#6--0.834000       -2.4101    17.33845   4.16298 
 H-#6-0.417000        -2.76956   16.53391   3.78917 
 O-#6--0.834000       -1.86273   2.49369  -0.22261 
 H-#6-0.417000        -1.26942   1.97489  -0.7658 
 H-#6-0.417000        -1.39586   2.60303   0.60582 
 O-#6--0.834000        1.34672   5.11626  -4.75794 
 H-#6-0.417000         0.42831   5.3061   -4.56629 
 H-#6-0.417000         1.48237   5.45561  -5.64263 
 O-#6--0.834000       -5.21171   7.91623   3.86801 
 H-#6-0.417000        -6.03175   7.44303   4.00888 
 H-#6-0.417000        -4.57758   7.23561   3.64246 
 O-#6--0.834000        3.25676   13.66204   7.29916 
 H-#6-0.417000         3.28818   14.21876   6.52115 
 H-#6-0.417000         2.44786   13.91599   7.74348 
 O-#6--0.834000       -2.83403   1.50808  -4.4239 
 H-#6-0.417000        -1.89906   1.67338  -4.54527 
 H-#6-0.417000        -3.15119   2.26923  -3.9378 
 O-#6--0.834000       -3.28602   10.63042   12.18599 
 H-#6-0.417000        -2.51753   10.17626   11.84046 
 O-#6--0.834000        7.51015   9.65882   5.85047 
 H-#6-0.417000         7.15309   9.87955   6.71071 
 H-#6-0.417000         6.84265   9.10239   5.44915 
 O-#6--0.834000        4.19411   5.96425  -0.13296 
 H-#6-0.417000         3.6622    5.35514   0.37918 
 H-#6-0.417000         3.72748   6.04986  -0.96432 
 O-#6--0.834000        5.76109  -2.87531   3.34596 
 H-#6-0.417000         6.15709  -2.64763   2.50479 
 H-#6-0.417000         4.95372  -2.36212   3.37788 
 O-#6--0.834000        7.57631   6.0336   -4.91286 
 H-#6-0.417000         8.41969   6.32989  -5.25513 
 H-#6-0.417000         7.42034   6.58661  -4.14731 
 O-#6--0.834000        6.39825   13.24617  -2.67555 
 H-#6-0.417000         6.68993   12.82221  -1.86845 
 H-#6-0.417000         6.15725   14.13285  -2.40732 
 O-#6--0.834000       -1.89597   4.83274  -3.38482 
 H-#6-0.417000        -2.2689    5.71349  -3.42272 
 H-#6-0.417000        -2.61526   4.28054  -3.07832 
 O-#6--0.834000        2.15831   13.81615   2.75414 
 H-#6-0.417000         2.44161   13.04505   2.26284 
 H-#6-0.417000         2.92146   14.061    3.27748 
 O-#6--0.834000        3.92858   9.39196   8.841 
 H-#6-0.417000         3.50679   8.63398   8.4363 
 H-#6-0.417000         3.9959    10.03461   8.13481 
 H-#6-0.417000         13.25576   7.62955   4.42012 
 H-#6-0.417000         11.18489   3.88955  -4.00992 
 O-#6--0.834000       -4.27768   14.11756   7.67504 
 H-#6-0.417000        -3.43686   14.48213   7.95134 
 O-#6--0.834000       -4.3346    5.98683  -5.33191 
 H-#6-0.417000        -4.12259   6.89091  -5.09969 
 H-#6-0.417000        -5.1793    5.8231   -4.91249 
 O-#6--0.834000       -9.03104   8.3322    0.02219 
 H-#6-0.417000        -9.08702   7.90703  -0.83357 
 H-#6-0.417000        -8.19286   8.79419   0.00627 
 O-#6--0.834000        4.47831   13.51521   4.11987 
 H-#6-0.417000         4.65962   12.59164   3.94557 
 H-#6-0.417000         5.30408   13.86238   4.45721 
 O-#6--0.834000        1.61573   13.48089  -5.52654 
 H-#6-0.417000         2.2439    12.77986  -5.70028 
 H-#6-0.417000         0.83586   13.2328  -6.02303 
 O-#6--0.834000        1.80665   0.08031  -6.87651 
 H-#6-0.417000         2.57375   0.31583  -7.39835 
 H-#6-0.417000         1.16367  -0.22199  -7.51793 
 O-#6--0.834000       -3.83505   0.56688  -0.7881 
 H-#6-0.417000        -3.33051   0.12668  -1.47212 
 H-#6-0.417000        -3.48322   1.4568   -0.76547 
 O-#6--0.834000       -0.66478   12.28609   2.97608 
 H-#6-0.417000        -0.18171   12.21861   2.15247 
 H-#6-0.417000        -0.06954   12.74827   3.56625 
 O-#6--0.834000       -5.60962   0.21969   2.6493 
 H-#6-0.417000        -5.54187  -0.72248   2.49449 
 H-#6-0.417000        -6.4738    0.45666   2.31275 
 H-#6-0.417000         1.76534   11.61285  -8.24236 
 O-#6--0.834000       -2.4956    11.07916   4.42245 
 H-#6-0.417000        -1.74496   11.40369   3.925 
 H-#6-0.417000        -2.80498   10.32284   3.92396 
 O-#6--0.834000        12.6735   5.65426   0.32428 
 H-#6-0.417000         11.7922   5.31365   0.47763 
 H-#6-0.417000         12.54385   6.40082  -0.26059 
 O-#6--0.834000        9.68971   5.06538   0.63028 
 H-#6-0.417000         9.57903   4.94074   1.57286 
 H-#6-0.417000         9.38745   5.95921   0.46927 
 O-#6--0.834000        11.82654   7.7054   -1.07132 
 H-#6-0.417000         12.45005   8.43049  -1.11273 
 H-#6-0.417000         11.12984   7.95296  -1.67923 
 O-#6--0.834000       -0.50318   7.5217   -7.6996 
 H-#6-0.417000        -1.06625   6.75689  -7.81896 
 H-#6-0.417000         0.33271   7.16058  -7.40445 
 O-#6--0.834000        4.365     11.08695   0.71496 
 H-#6-0.417000         3.57564   10.9053   0.20492 
 H-#6-0.417000         4.61245   11.97726   0.46528 
 O-#6--0.834000        6.77948   3.48692  -4.71869 
 H-#6-0.417000         7.12731   4.37072  -4.83762 
 H-#6-0.417000         7.50048   2.99635  -4.32406 
 O-#6--0.834000       -6.93926   7.30623   8.6427 
 H-#6-0.417000        -7.51822   6.93053   9.30594 
 H-#6-0.417000        -6.54042   6.54834   8.21519 
 O-#6--0.834000        1.77295   6.57197  -2.19921 
 H-#6-0.417000         2.16235   5.72285  -2.40798 
 H-#6-0.417000         1.55978   6.95406  -3.05056 
 O-#6--0.834000        3.59546   4.75309  -3.08282 
 H-#6-0.417000         3.91562   3.85164  -3.0494 
 H-#6-0.417000         2.9577    4.75495  -3.7966 
 H-#6-0.417000         6.86048   11.92089  -6.89643 
 O-#6--0.834000       -0.14001   2.1782   -5.07779 
 H-#6-0.417000         0.63996   1.62391  -5.05281 
 H-#6-0.417000         0.16701   3.00822  -5.44255 
 O-#6--0.834000        2.37389   1.3932    1.41844 
 H-#6-0.417000         2.98128   1.96609   1.88651 
 H-#6-0.417000         2.72874   0.51316   1.54431 
 O-#6--0.834000        4.96393   8.15111  -5.70863 
 H-#6-0.417000         5.51428   7.65791  -6.31698 
 H-#6-0.417000         5.18935   9.0673   -5.86986 
 O-#6--0.834000       -4.49606   4.26791   5.79016 
 H-#6-0.417000        -3.53995   4.30013   5.75785 
 H-#6-0.417000        -4.77572   4.57098   4.92634 
 O-#6--0.834000        8.19012  -2.23342  -1.95272 
 H-#6-0.417000         8.5342   -1.39594  -2.26332 
 O-#6--0.834000        8.2897    4.78424   2.98149 
 H-#6-0.417000         8.30742   5.21155   3.83783 
 H-#6-0.417000         7.5354    5.17024   2.53622 
 O-#6--0.834000       -7.0654    5.70091  -4.73306 
 H-#6-0.417000        -7.49509   5.90249  -5.56431 
 H-#6-0.417000        -7.08961   4.74573  -4.67583 
 O-#6--0.834000        4.64433   3.25469   2.07776 
 H-#6-0.417000         4.90831   2.78677   2.86997 
 H-#6-0.417000         5.40604   3.78707   1.84842 
 O-#6--0.834000        6.15322  -3.32232   6.4438 
 H-#6-0.417000         5.48021  -2.69389   6.70528 
 H-#6-0.417000         5.88403  -3.61369   5.57267 
 O-#6--0.834000       -6.09848   10.64078  -4.45169 
 H-#6-0.417000        -5.84445   11.44434  -3.99781 
 H-#6-0.417000        -6.56913   10.94255  -5.22864 
 O-#6--0.834000       -0.64279   1.1394   -2.14827 
 H-#6-0.417000         0.22938   0.7478   -2.1952 
 H-#6-0.417000        -1.23604   0.43645  -2.41312 
 O-#6--0.834000        1.95396   0.19212  -4.0329 
 H-#6-0.417000         1.89898  -0.09852  -4.94325 
 H-#6-0.417000         2.67804   0.81811  -4.02416 
 H-#6-0.417000         7.77007  -3.63951   3.12664 
 O-#6--0.834000        2.79932  -0.70418  -1.70697 
 H-#6-0.417000         2.51044  -0.52681  -2.60213 
 H-#6-0.417000         2.00187  -0.64362  -1.181 
 O-#6--0.834000        0.8559    11.8895   0.53263 
 H-#6-0.417000         0.16201   11.97429  -0.12125 
 H-#6-0.417000         1.64561   12.19369   0.08535 
 O-#6--0.834000        3.41325   11.53425  -5.79535 
 H-#6-0.417000         3.89839   12.09985  -6.39617 
 H-#6-0.417000         2.89224   10.96908  -6.36575 
 O-#6--0.834000        0.51746  -2.72064   6.15364 
 H-#6-0.417000         0.41129  -2.21258   6.95789 
 H-#6-0.417000         1.22086  -3.33897   6.35148 
 O-#6--0.834000        5.99357   10.97406  -4.85359 
 H-#6-0.417000         6.08425   11.49774  -4.05749 
 H-#6-0.417000         5.05655   10.99344  -5.04815 
 O-#6--0.834000        5.25267  -1.90018  -1.29158 
 H-#6-0.417000         4.40021  -1.55268  -1.55385 
 H-#6-0.417000         5.88664  -1.28817  -1.66541 
 O-#6--0.834000        4.5544    11.1147   11.07409 
 H-#6-0.417000         3.81416   10.59806   10.75574 
 H-#6-0.417000         4.16529   11.94185   11.35807 
 O-#6--0.834000       -1.3405   -4.92956  -0.42412 
 H-#6-0.417000        -0.43081  -4.63693  -0.36873 
 H-#6-0.417000         0.23978   17.74512  -0.20462 
 O-#6--0.834000        2.85226   2.26183   9.54733 
 H-#6-0.417000         1.90536   2.34823   9.6576 
 H-#6-0.417000         3.17603   2.03792   10.41984 
 O-#6--0.834000        6.85496   2.82119   8.21086 
 H-#6-0.417000         6.47615   1.95373   8.06857 
 H-#6-0.417000         7.77897   2.6523    8.395 
 O-#6--0.834000        2.83456   2.52108  -1.54195 
 H-#6-0.417000         2.10257   2.91779  -2.01422 
 H-#6-0.417000         2.46722   2.27485  -0.69303 
 O-#6--0.834000       -3.48157  -2.9284    5.22466 
 H-#6-0.417000        -2.93035  -3.11042   4.46357 
 H-#6-0.417000        -4.22387  -2.43794   4.87157 
 O-#6--0.834000       -4.57552   3.03305   9.99381 
 H-#6-0.417000        -4.34524   2.10466   9.95799 
 H-#6-0.417000        -5.29551   3.07762   10.62298 
 O-#6--0.834000       -0.99082   8.9325    11.26128 
 H-#6-0.417000        -0.22982   8.71628   11.80013 
 H-#6-0.417000        -0.62753   9.11276   10.39424 
 O-#6--0.834000        10.62585   6.19789  -4.52955 
 H-#6-0.417000         10.31701   7.08969  -4.36977 
 H-#6-0.417000         10.00752   5.64134  -4.0561 
 O-#6--0.834000       -5.34092  -0.02958   5.39554 
 H-#6-0.417000        -5.98974  -0.73071   5.45617 
 H-#6-0.417000        -5.26367   0.14547   4.45766 
 O-#6--0.834000        7.77045  -0.3411    8.59282 
 H-#6-0.417000         7.17767  -0.55334   9.31378 
 H-#6-0.417000         7.53348  -0.9558    7.8984 
 O-#6--0.834000        5.78354  -0.79473   10.45034 
 H-#6-0.417000         5.08143  -1.1139    9.88342 
 O-#6--0.834000        4.20439   5.91567  -9.34205 
 H-#6-0.417000         4.87298   5.57641  -8.74698 
 O-#6--0.834000        4.57915   11.37737   6.81901 
 H-#6-0.417000         5.13243   11.75769   6.13676 
 H-#6-0.417000         4.23537   12.13178   7.29746 
 O-#6--0.834000        6.02117   9.5144   -8.37242 
 O-#6--0.834000       -6.51677  -0.06299  -1.49313 
 H-#6-0.417000        -5.67618   0.35099  -1.29753 
 H-#6-0.417000        -6.33699  -1.00226  -1.45224 
 H-#6-0.417000         7.6686    8.55      12.00058 
 O-#6--0.834000       -0.94809   1.69582   4.04044 
 H-#6-0.417000        -0.04252   1.55122   4.31477 
 H-#6-0.417000        -0.8755    2.08956   3.171 
 O-#6--0.834000        9.47354   2.72275  -0.89269 
 H-#6-0.417000         10.11133   2.2278   -0.37841 
 H-#6-0.417000         9.44369   3.58315  -0.47429 
 O-#6--0.834000        1.13346   14.65647   9.79699 
 H-#6-0.417000         1.01444   13.70686   9.77949 
 O-#6--0.834000        5.61067   14.19858   0.6201 
 H-#6-0.417000         5.82544   14.0827   1.54567 
 H-#6-0.417000         6.39112   14.60326   0.24148 
 O-#6--0.834000       -1.70956   8.44083   3.23322 
 H-#6-0.417000        -1.78541   7.5151    3.46455 
 H-#6-0.417000        -1.20375   8.8263    3.94862 
 H-#6-0.417000        -9.86859   8.48142   1.53844 
 O-#6--0.834000        11.19502   5.35443   6.11686 
 H-#6-0.417000         11.46705   4.76582   5.41275 
 H-#6-0.417000         12.00848   5.58214   6.56703 
 O-#6--0.834000        1.11378   8.37258   12.89752 
 H-#6-0.417000         1.50749   7.54203   13.16475 
 H-#6-0.417000         1.61781   8.6409    12.12927 
 O-#6--0.834000        4.32901  -0.97204   1.2374 
 H-#6-0.417000         3.6072   -1.56894   1.43475 
 H-#6-0.417000         4.64705  -1.25522   0.38014 
 O-#6--0.834000        3.73992   9.64058  -3.18266 
 H-#6-0.417000         3.61943   9.69412  -2.23458 
 H-#6-0.417000         3.03464   10.17688  -3.54487 
 O-#6--0.834000       -6.23145  -2.39394   0.57039 
 H-#6-0.417000        -5.49395  -2.1201    0.0251 
 O-#6--0.834000        6.38228   17.23497   2.29929 
 H-#6-0.417000         7.15374   16.66838   2.30763 
 O-#6--0.834000       -0.7909   -0.81235  -5.55848 
 H-#6-0.417000        -1.67447  -1.15531  -5.69234 
 H-#6-0.417000        -0.91757  -0.01979  -5.03692 
 O-#6--0.834000        6.73828   2.66628   11.20802 
 H-#6-0.417000         6.95878   1.96211   11.81774 
 H-#6-0.417000         6.64417   2.22988   10.36131 
 O-#6--0.834000       -3.4453   -2.12437   0.27888 
 H-#6-0.417000        -3.43915  -2.29313  -0.6633 
 H-#6-0.417000        -3.23458  -1.19397   0.35742 
 O-#6--0.834000        2.48206   6.9609   -7.12014 
 H-#6-0.417000         2.95102   7.59913  -6.58257 
 H-#6-0.417000         3.04506   6.82994  -7.88311 
 O-#6--0.834000       -1.64739   3.99794   5.49838 
 H-#6-0.417000        -1.54386   3.09908   5.18605 
 H-#6-0.417000        -1.15718   4.02443   6.3201 
 O-#6--0.834000       -2.56635   16.60243   6.7365 
 H-#6-0.417000        -1.76803   16.50821   7.25615 
 O-#6--0.834000        12.50597   10.96923   1.85107 
 H-#6-0.417000         11.83425   10.29248   1.76719 
 H-#6-0.417000         12.01595   11.77433   2.0182 
 O-#6--0.834000        7.18364  -3.53332   1.235 
 H-#6-0.417000         7.61951  -2.77035   0.85536 
 H-#6-0.417000         6.99002  -4.09662   0.48571 
 O-#6--0.834000        8.90323   4.60256  -2.85969 
 H-#6-0.417000         7.96838   4.54071  -2.66358 
 H-#6-0.417000         9.31369   3.96509  -2.2754 
 O-#6--0.834000        2.87446   7.06456   7.34642 
 H-#6-0.417000         3.44099   6.3019    7.22972 
 H-#6-0.417000         2.91298   7.52283   6.50693 
 O-#6--0.834000       -5.81202   12.38436   4.15151 
 H-#6-0.417000        -5.08005   12.0161   3.65671 
 H-#6-0.417000        -6.09367   13.1404   3.63642 
 O-#6--0.834000       -3.04069   1.57631  -7.27833 
 H-#6-0.417000        -3.05469   2.4831   -7.58456 
 H-#6-0.417000        -3.31108   1.62841  -6.36159 
 O-#6--0.834000        1.3596   -2.57997  -5.43325 
 H-#6-0.417000         0.85837  -1.81552  -5.14932 
 O-#6--0.834000        5.20066   10.83107   3.48715 
 H-#6-0.417000         4.99127   10.70392   2.56183 
 H-#6-0.417000         5.35916   9.94804   3.82088 
 O-#6--0.834000        2.64595   16.42444   0.37957 
 H-#6-0.417000         2.46948   16.68646   1.28314 
 H-#6-0.417000         2.38749   15.50357   0.3419 
 O-#6--0.834000        3.36652   14.37921  -3.471 
 H-#6-0.417000         4.03445   13.73349  -3.70155 
 H-#6-0.417000         2.73855   14.34299  -4.19251 
 O-#6--0.834000       -0.05934   2.73125   1.71568 
 H-#6-0.417000         0.74665   2.21558   1.68935 
 H-#6-0.417000         0.18956   3.58396   1.35906 
 O-#6--0.834000       -5.66736   0.25261   9.08403 
 H-#6-0.417000        -5.30857  -0.45973   8.55482 
 O-#6--0.834000        11.2409   0.95      0.49079 
 H-#6-0.417000         11.97764   1.11355  -0.09802 
 H-#6-0.417000         10.88261   0.11147   0.19969 
 O-#6--0.834000        8.31032   1.44699  -6.12803 
 H-#6-0.417000         7.79604   0.65689  -6.29386 
 H-#6-0.417000         7.8385    2.14135  -6.5879 
 O-#6--0.834000        0.92867   18.18472   2.3348 
 H-#6-0.417000         0.6667    17.27567   2.48049 
 O-#6--0.834000       -7.43594   3.89235   4.8802 
 H-#6-0.417000        -6.89548   3.51231   5.57281 
 H-#6-0.417000        -7.8714    3.14165   4.47641 
 O-#6--0.834000        5.52201   16.50991   6.96593 
 H-#6-0.417000         5.2278    16.59386   6.05894 
 H-#6-0.417000         5.98185   15.67082   6.99237 
 O-#6--0.834000        0.1319   -3.38612  -3.02198 
 H-#6-0.417000         0.56293  -3.21155  -3.85862 
 H-#6-0.417000         4.75035   0.44244  -7.57648 
 O-#6--0.834000       -8.10179   7.48889   3.39921 
 H-#6-0.417000        -9.03451   7.61326   3.22376 
 H-#6-0.417000        -7.85282   8.2496    3.92416 
 O-#6--0.834000       -3.8475    9.02881   6.45825 
 H-#6-0.417000        -4.66347   8.9607    6.95402 
 H-#6-0.417000        -4.08358   8.76227   5.56973 
 O-#6--0.834000        9.08891   13.77001  -3.56845 
 H-#6-0.417000         8.37643   13.15102  -3.40892 
 O-#6--0.834000        5.81185   0.00552  -3.64479 
 H-#6-0.417000         5.35748   0.75863  -4.02241 
 H-#6-0.417000         6.70306   0.3172   -3.48721 
 O-#6--0.834000       -7.99764   3.07802   8.54898 
 H-#6-0.417000        -7.34914   3.77758   8.46959 
 H-#6-0.417000        -7.53287   2.28762   8.27422 
 O-#6--0.834000        8.06092   5.44962   8.50002 
 H-#6-0.417000         8.79515   4.88947   8.24827 
 H-#6-0.417000         7.31867   4.8506    8.58055 
 O-#6--0.834000        5.56603   2.18637   4.92658 
 H-#6-0.417000         5.45477   1.5511    5.63389 
 H-#6-0.417000         5.92314   2.96368   5.35612 
 O-#6--0.834000       -7.64534   11.592    0.18811 
 H-#6-0.417000        -7.23917   10.90588   0.71773 
 H-#6-0.417000        -7.0019    12.30062   0.17895 
 O-#6--0.834000        7.83678   8.18631  -1.19077 
 H-#6-0.417000         7.45772   9.0645   -1.22708 
 H-#6-0.417000         7.10893   7.60181  -1.40251 
 O-#6--0.834000        9.14779   0.57567  -2.44054 
 H-#6-0.417000         9.95751   0.52884  -2.94887 
 H-#6-0.417000         9.18381   1.4298   -2.00995 
 O-#6--0.834000       -6.63861   9.44529  -1.69221 
 H-#6-0.417000        -6.82079   9.99384  -2.45519 
 H-#6-0.417000        -6.6216    8.55253  -2.03706 
 O-#6--0.834000        3.185    -1.68111   9.72876 
 H-#6-0.417000         2.93268  -0.86857   10.16733 
 O-#6--0.834000       -5.2926   -2.5502    3.25356 
 H-#6-0.417000        -5.67161  -2.70815   2.3889 
 O-#6--0.834000        6.07389   5.98137   1.83103 
 H-#6-0.417000         6.03284   6.9142    2.04168 
 H-#6-0.417000         5.41203   5.85971   1.15031 
 O-#6--0.834000       -1.39176   15.18282  -1.13207 
 H-#6-0.417000        -1.47263   16.00562  -1.61447 
 H-#6-0.417000        -1.43593   15.43935  -0.21094 
 O-#6--0.834000        5.69185   13.73874   8.17481 
 H-#6-0.417000         5.84162   14.12732   9.03667 
 H-#6-0.417000         4.7506    13.83377   8.02899 
 H-#6-0.417000        -5.89834   9.44112   10.69704 
 O-#6--0.834000        10.57617   13.14867   2.36799 
 H-#6-0.417000         9.7209    12.93538   2.74115 
 H-#6-0.417000         10.47137   14.03335   2.01786 
 O-#6--0.834000       -0.82865  -1.67824   3.96285 
 H-#6-0.417000        -0.56303  -2.08439   4.78791 
 H-#6-0.417000        -1.32458  -0.90289   4.22577 
 O-#6--0.834000        2.95731   6.10287   12.1426 
 H-#6-0.417000         3.59931   5.51775   12.54474 
 H-#6-0.417000         3.45162   6.89625   11.93662 
 O-#6--0.834000        0.41907   15.76804   3.19799 
 H-#6-0.417000         0.52478   15.83919   4.14667 
 H-#6-0.417000         0.98664   15.03919   2.94726 
 O-#6--0.834000        1.67188   17.00731  -2.68789 
 H-#6-0.417000         1.62173   16.06245  -2.54315 
 H-#6-0.417000         0.98507   17.37235  -2.12998 
 O-#6--0.834000       -3.81866   2.32035   2.83616 
 H-#6-0.417000        -2.99782   1.92938   3.13548 
 H-#6-0.417000        -4.38678   1.57277   2.65019 
 O-#6--0.834000       -3.20566   14.63336   4.28399 
 H-#6-0.417000        -3.20017   14.87374   5.2105 
 H-#6-0.417000        -4.06541   14.91216   3.96881 
 O-#6--0.834000        1.77089   5.51686   9.39573 
 H-#6-0.417000         2.0277    6.16135   8.73625 
 H-#6-0.417000         2.0964    5.87555   10.22134 
 O-#6--0.834000        6.52653   11.19934   8.94102 
 H-#6-0.417000         6.13634   11.90644   8.42721 
 H-#6-0.417000         5.78227   10.77129   9.36421 
 O-#6--0.834000        0.57766   9.53056   1.90358 
 H-#6-0.417000        -0.32841   9.47167   2.20657 
 H-#6-0.417000         0.64255   10.39997   1.50844 
 O-#6--0.834000        0.98655  -1.27158   11.378 
 O-#6--0.834000        2.95943   13.73767  -0.44946 
 H-#6-0.417000         3.72722   14.18753  -0.09683 
 H-#6-0.417000         2.96454   13.94993  -1.38282 
 O-#6--0.834000       -0.77941   12.56207   9.36365 
 H-#6-0.417000        -1.28963   12.27522   8.60627 
 H-#6-0.417000        -0.92906   13.50635   9.41013 
 O-#6--0.834000       -0.12864   15.50732  -4.96284 
 H-#6-0.417000         0.56665   14.86497  -5.10489 
 O-#6--0.834000       -2.32281  -1.75038   9.16467 
 H-#6-0.417000        -1.42391  -1.75144   8.83574 
 H-#6-0.417000        -1.16587   9.1747   -9.06629 
 O-#6--0.834000       -5.55978   15.35416   3.44115 
 H-#6-0.417000        -5.84619   15.29103   2.52998 
 O-#6--0.834000        7.27113   10.94701  -0.6974 
 H-#6-0.417000         6.66634   10.86218   0.03967 
 H-#6-0.417000         8.12196   11.11365  -0.29174 
 O-#6--0.834000       -8.03615   8.19513  -4.11254 
 H-#6-0.417000        -7.48855   7.42378  -4.25874 
 O-#6--0.834000       -5.23504   12.56737  -2.32499 
 H-#6-0.417000        -5.31709   12.535   -1.37187 
 H-#6-0.417000        -5.67249   13.38091  -2.57603 
 O-#6--0.834000        9.16415   13.29395   6.73609 
 H-#6-0.417000         9.24278   12.42287   7.12502 
 O-#6--0.834000        6.66827   13.86617   5.7438 
 H-#6-0.417000         7.58349   13.69576   5.96643 
 H-#6-0.417000         6.20964   13.84845   6.58378 
 O-#6--0.834000        10.13996   2.86763   2.86242 
 H-#6-0.417000         10.28558   2.21437   2.17811 
 H-#6-0.417000         9.27122   3.22275   2.67423 
 H-#6-0.417000        -3.29834  -0.40581   10.17996 
 O-#6--0.834000       -3.0248    10.92948  -1.06296 
 H-#6-0.417000        -2.98716   10.3561  -0.29742 
 H-#6-0.417000        -3.90501   10.8006  -1.41629 
 O-#6--0.834000        2.13159   8.87196  -0.43581 
 H-#6-0.417000         1.44662   8.91411   0.23147 
 H-#6-0.417000         1.85297   8.16811  -1.02163 
 O-#6--0.834000       -5.82291   6.78077  -2.17217 
 H-#6-0.417000        -5.90592   5.82718  -2.17146 
 H-#6-0.417000        -5.90754   7.02971  -1.25179 
 O-#6--0.834000       -2.51381   11.79865   7.12457 
 H-#6-0.417000        -2.68632   11.44522   6.2519 
 H-#6-0.417000        -3.19495   11.41583   7.67749 
 O-#6--0.834000        2.8942    9.46356   5.6919 
 H-#6-0.417000         3.2449    10.27294   6.06357 
 H-#6-0.417000         2.74043   9.66975   4.76991 
 H-#6-0.417000         5.91746  -1.8874   -4.07656 
 O-#6--0.834000       -2.45236   4.64887   9.67011 
 H-#6-0.417000        -2.58699   5.32686   10.33227 
 H-#6-0.417000        -3.25563   4.12878   9.69241 
 O-#6--0.834000       -3.08252   7.05773  -1.41251 
 H-#6-0.417000        -4.00195   7.21402  -1.62806 
 H-#6-0.417000        -2.60615   7.2918   -2.20908 
 O-#6--0.834000        1.28774  -4.86059   1.66654 
 H-#6-0.417000         2.08448  -5.13326   1.21147 
 H-#6-0.417000        -8.98128   5.03838   5.58199 
 H-#6-0.417000        -9.94346   6.16882   5.28502 
 O-#6--0.834000        0.83112   8.26789  -4.52472 
 H-#6-0.417000         1.1542    8.37305  -5.4196 
 H-#6-0.417000         1.15256   9.04116  -4.0611 
 O-#6--0.834000        5.20614   0.64997   7.24089 
 H-#6-0.417000         5.16447  -0.27017   6.98041 
 H-#6-0.417000         4.30073   0.88225   7.44707 
 O-#6--0.834000       -1.96423   15.86635   1.48601 
 H-#6-0.417000        -2.44008   15.03828   1.54992 
 H-#6-0.417000        -1.35466   15.85042   2.22384 
 O-#6--0.834000       -5.95602   2.3357   -4.61128 
 H-#6-0.417000        -6.50974   2.11643  -3.86192 
 H-#6-0.417000        -5.07657   2.42079  -4.24308 
 O-#6--0.834000        3.03477  -1.59964   4.11606 
 H-#6-0.417000         2.46923  -1.72606   3.35421 
 H-#6-0.417000         3.03575  -0.65329   4.25982 
 O-#6--0.834000        0.83481   15.36135   6.20459 
 H-#6-0.417000         0.35941   14.58951   5.89719 
 H-#6-0.417000         0.28383   15.72158   6.89949 
 O-#6--0.834000       -6.3769    9.64332   7.30707 
 H-#6-0.417000        -5.84288   10.16627   7.90505 
 H-#6-0.417000        -6.66803   8.89901   7.83383 
 O-#6--0.834000        3.90797  -1.82919   6.78943 
 H-#6-0.417000         3.30529  -2.02464   6.07193 
 H-#6-0.417000         3.3547   -1.81481   7.5704 
 O-#6--0.834000        6.75308   0.57392   1.36658 
 H-#6-0.417000         6.44063   1.24624   0.76111 
 H-#6-0.417000         6.02012  -0.03653   1.44637 
 O-#6--0.834000       -7.77597   4.92097   1.9431 
 H-#6-0.417000        -7.8375    5.76113   2.39761 
 H-#6-0.417000        -8.62472   4.50446   2.09269 
 O-#6--0.834000        9.98477   8.38573  -2.93162 
 H-#6-0.417000         9.93312   9.03046  -3.63723 
 H-#6-0.417000         9.22791   8.57554  -2.37722 
 H-#6-0.417000         9.68196   0.22992   8.19948 
 O-#6--0.834000       -6.44914   6.9089    0.47078 
 H-#6-0.417000        -6.63624   7.72841   0.92863 
 H-#6-0.417000        -6.95915   6.2494    0.9411 
 O-#6--0.834000        7.1773    5.08267   12.3043 
 H-#6-0.417000         6.73586   5.67437   11.695 
 H-#6-0.417000         7.09828   4.21881   11.89966 
 O-#6--0.834000       -8.8951    1.85978   3.69377 
 H-#6-0.417000        -9.49534   2.51608   3.3399 
 H-#6-0.417000        -8.47202   1.48117   2.92313 
 H-#6-0.417000         0.29135   15.85251   8.77293 
 O-#6--0.834000        0.29663  -1.40665  -0.99108 
 H-#6-0.417000         0.43112  -2.24538  -1.43231 
 H-#6-0.417000        -0.63498  -1.39772  -0.77139 
 O-#6--0.834000        8.58369   12.62657   4.03822 
 H-#6-0.417000         8.92619   12.43784   4.91189 
 H-#6-0.417000         7.84283   12.02904   3.93665 
 O-#6--0.834000        11.12499   7.81577   2.01008 
 H-#6-0.417000         12.0363   7.98698   2.24762 
 H-#6-0.417000         11.17978   7.23089   1.25434 
 O-#6--0.834000       -4.70613   9.2485   -7.46514 
 O-#6--0.834000       -4.20731   7.48514   10.01169 
 H-#6-0.417000        -4.77462   6.71436   9.99452 
 H-#6-0.417000        -4.15386   7.72321   10.93727 
 O-#6--0.834000        8.26223   15.33164   3.31147 
 H-#6-0.417000         8.2983    14.51629   3.81161 
 H-#6-0.417000         8.71596   15.13128   2.4928 
 O-#6--0.834000        5.87606   5.21325  -7.08673 
 H-#6-0.417000         5.78154   4.27143  -6.94434 
 H-#6-0.417000         6.07935   5.56763  -6.2211 
 O-#6--0.834000        10.45765   8.36919   9.24253 
 H-#6-0.417000         10.89079   7.92493   8.51367 
 H-#6-0.417000         10.11056   7.66003   9.78369 
 O-#6--0.834000        8.64633   9.67959  -5.15038 
 H-#6-0.417000         7.71524   9.89084  -5.21877 
 H-#6-0.417000         8.74454   8.86528  -5.64383 
 H-#6-0.417000         1.36135   17.91219   5.47933 
 O-#6--0.834000       -0.64322   1.39941   8.02751 
 H-#6-0.417000        -0.60415   2.35573   8.0149 
 H-#6-0.417000        -1.43557   1.18509   7.53508 
 O-#6--0.834000        0.37081   3.79496  -2.22669 
 H-#6-0.417000         0.0042    4.67033  -2.10194 
 H-#6-0.417000        -0.18047   3.39774  -2.90088 
 O-#6--0.834000       -6.22828   12.73986   6.77735 
 H-#6-0.417000        -5.37866   13.11163   7.01434 
 H-#6-0.417000        -6.12514   12.46752   5.86552 
 H-#6-0.417000        -8.77393   11.31498  -1.13223 
 H-#6-0.417000        -9.00971   10.12999  -2.04443 
 H-#6-0.417000         4.16126  -4.44786  -2.21546 
 O-#6--0.834000       -3.45607   8.95702   1.03285 
 H-#6-0.417000        -3.18612   8.31934   0.372 
 H-#6-0.417000        -2.98349   8.69763   1.82381 
 O-#6--0.834000        1.09858  -5.19447   4.99398 
 H-#6-0.417000         0.67331  -4.34003   5.06691 
 H-#6-0.417000         1.95986  -5.00297   4.62284 
 O-#6--0.834000       -5.87857   4.80263   8.19664 
 H-#6-0.417000        -5.53716   4.02223   8.63327 
 H-#6-0.417000        -5.35842   4.87688   7.39653 
 O-#6--0.834000        4.54842   4.0487    13.48549 
 H-#6-0.417000         5.42092   4.20858   13.12574 
 O-#6--0.834000        3.47072   0.9728    4.04539 
 H-#6-0.417000         4.30945   1.32164   4.34717 
 H-#6-0.417000         2.86396   1.1517    4.76377 
 O-#6--0.834000       -4.64008   5.06271   2.79494 
 H-#6-0.417000        -4.57745   4.12259   2.62615 
 H-#6-0.417000        -5.43223   5.33722   2.33301 
 H-#6-0.417000        -8.98818   10.97071   4.15638 
 O-#6--0.834000        4.60793   8.35042   1.6248 
 H-#6-0.417000         4.63597   9.11967   1.05584 
 H-#6-0.417000         4.20357   7.66918   1.08755 
 O-#6--0.834000        9.89707   7.64244   4.63989 
 H-#6-0.417000         10.13569   7.59269   3.71425 
 H-#6-0.417000         10.24217   6.83477   5.02043 
 O-#6--0.834000        1.83725   9.91397  -7.57635 
 H-#6-0.417000         0.8884    10.03652  -7.54628 
 H-#6-0.417000         1.96957   9.2234   -8.22584 
 O-#6--0.834000       -1.1432    13.71838   5.67578 
 H-#6-0.417000        -1.42107   12.94645   6.16888 
 H-#6-0.417000        -1.80041   13.81203   4.98619 
 O-#6--0.834000       -5.96932   9.69639   1.67633 
 H-#6-0.417000        -6.17494   9.29126   2.51884 
 H-#6-0.417000        -5.10278   9.35721   1.45206 
 O-#6--0.834000        8.15722   5.89674   5.63541 
 H-#6-0.417000         8.50342   6.78671   5.70122 
 H-#6-0.417000         7.98284   5.63951   6.54077 
 O-#6--0.834000        7.90273   15.41669  -0.19362 
 H-#6-0.417000         7.58115   15.54958  -1.08534 
 O-#6--0.834000        9.0076   -0.85847   0.82875 
 H-#6-0.417000         8.24715  -0.27772   0.85475 
 H-#6-0.417000         9.25819  -0.96696   1.74618 
 O-#6--0.834000        4.21209   8.44207   11.64942 
 H-#6-0.417000         4.86041   8.88348   12.19812 
 H-#6-0.417000         4.29108   8.86719   10.79544 
 O-#6--0.834000       -6.70709   6.52299   5.78465 
 H-#6-0.417000        -7.193     5.79164   5.40352 
 H-#6-0.417000        -7.34882   6.98024   6.3281 
 H-#6-0.417000        -3.89079  -2.08239   8.42049 
 O-#6--0.834000        7.46816   8.89294   1.49803 
 H-#6-0.417000         8.30151   8.8044    1.96055 
 H-#6-0.417000         7.52375   8.26193   0.78042 
 O-#6--0.834000       -3.11661   13.07328   1.96706 
 H-#6-0.417000        -3.12548   13.60636   2.76203 
 H-#6-0.417000        -2.63419   12.28391   2.2128 
 O-#6--0.834000       -0.48591   4.10259   7.96325 
 H-#6-0.417000        -1.26656   4.31801   8.47357 
 H-#6-0.417000         0.16477   4.74977   8.23528 
 O-#6--0.834000       -7.53658   9.97696   4.81051 
 H-#6-0.417000        -6.95761   10.62383   4.40728 
 H-#6-0.417000        -7.18436   9.85629   5.69233 
 O-#6--0.834000       -1.98513   5.90571   3.65394 
 H-#6-0.417000        -2.75199   5.42871   3.33669 
 H-#6-0.417000        -1.55      5.29325   4.24706 
 O-#6--0.834000       -1.07763   2.73974   10.9168 
 H-#6-0.417000        -1.37923   3.57549   10.56073 
 H-#6-0.417000        -1.532     2.07849   10.39476 
 O-#6--0.834000        4.14743   16.42834   4.78924 
 H-#6-0.417000         4.72718   16.52862   4.03421 
 H-#6-0.417000         3.4566    17.07589   4.64903 
 O-#6--0.834000       -4.11621   8.89909  -4.84538 
 H-#6-0.417000        -4.88881   9.37558  -4.5416 
 H-#6-0.417000        -4.23217   8.83326  -5.79324 
 O-#6--0.834000        7.97336  -1.17653   5.72617 
 H-#6-0.417000         8.17048  -0.81071   4.86388 
 H-#6-0.417000         7.37285  -1.90037   5.54821 
 O-#6--0.834000        0.40593   3.78773  -8.47828 
 H-#6-0.417000        -0.41647   4.27454  -8.42435 
 H-#6-0.417000         0.79394   4.06335  -9.30877 
 O-#6--0.834000       -2.19249   8.4586    8.53456 
 H-#6-0.417000        -2.74097   8.56653   7.75755 
 H-#6-0.417000        -2.77513   8.07093   9.18762 
 O-#6--0.834000       -6.39412   3.96515  -1.57622 
 H-#6-0.417000        -6.99228   3.63992  -2.24902 
 H-#6-0.417000        -6.96515   4.22963  -0.85496 
 O-#6--0.834000        10.0005   10.37595   6.96294 
 H-#6-0.417000         9.93243   9.72658   7.66287 
 H-#6-0.417000         9.61243   9.94783   6.19982 
 O-#6--0.834000       -1.79877   9.88451  -7.26572 
 H-#6-0.417000        -1.33818   9.04969  -7.35043 
 H-#6-0.417000        -2.6912    9.64223  -7.01856 
 H-#6-0.417000         8.21502   11.87145   9.36535 
 
 MM Charge=             -2.0850 electrons
 MM Dipole moment (Debye):
    X=            -54.3599    Y=             -3.9575    Z=              3.1339  Tot=             54.5938
 MM Quadrupole moment (Debye-Ang):
   XX=            914.1477   YY=          -1782.7238   ZZ=           -259.8740
   XY=           -777.3812   XZ=           -117.8601   YZ=            416.5486
 MM Traceless Quadrupole moment (Debye-Ang):
   XX=           1290.2977   YY=          -1406.5738   ZZ=            116.2761
   XY=           -777.3812   XZ=           -117.8601   YZ=            416.5486
 MM Octapole moment (Debye-Ang**2):
  XXX=          -3524.5956  YYY=         -29093.7585  ZZZ=           1064.6725  XYY=          -7983.5948
  XXY=           4527.5788  XXZ=           5373.7083  XZZ=          -1565.8942  YZZ=            599.1445
  YYZ=          -3707.7382  XYZ=           1673.5298
 MM Hexadecapole moment (Debye-Ang**3):
 XXXX=         142595.1793 YYYY=        -548100.2208 ZZZZ=          -3897.9370 XXXY=         -71123.3818
 XXXZ=           7513.8425 YYYX=         -95355.0181 YYYZ=         -95353.4250 ZZZX=           -975.0845
 ZZZY=          46675.0472 XXYY=          -2123.7000 XXZZ=          18620.1901 YYZZ=         -44365.1514
 XXYZ=          42806.1540 YYXZ=          15222.4419 ZZXY=          -1177.6962

 GradGradGradGradGradGradGradGradGradGradGradGradGradGradGradGradGradGrad
 Berny optimization.
 Initialization pass.
 Trust Radius=1.00D-01 FncErr=1.00D-07 GrdErr=1.00D-07 EigMax=2.50D+02 EigMin=1.00D-04
 Number of steps in this run=      2 maximum allowed number of steps=      2.
 GradGradGradGradGradGradGradGradGradGradGradGradGradGradGradGradGradGrad

 Symmetry turned off by external request.
 Stoichiometry    CH483ClNO241
 Framework group  C1[X(CH483ClNO241)]
 Deg. of freedom  2175
 Full point group                 C1      NOp   1
                          Input orientation:                          
 ---------------------------------------------------------------------
 Center     Atomic      Atomic             Coordinates (Angstroms)
 Number     Number       Type             X           Y           Z
 ---------------------------------------------------------------------
      1          7           0       -0.045856    5.835657    0.532439
      2          6           0        1.618404    5.444279    2.687080
      3         17           0        2.481455    5.665867    4.175848
      4          1           0       -0.894257    5.705678   -0.007398
      5          1           0        0.549615    6.524066    0.053871
      6          1           0       -0.453067    6.281586    1.360746
      7          1           0        2.196771    4.668450    2.178965
      8          1           0        0.536630    5.084496    2.778651
      9          1           0        1.588276    6.410769    2.179514
     10          8           6       -4.500872   10.426332    9.206744
     11          1           6       -3.807574    9.785921    9.047236
     12          1           6       -4.259304   10.840162   10.035371
     13          8           6        6.396157    4.187382   -1.577610
     14          1           6        6.136797    4.848063   -0.935376
     15          1           6        5.866959    3.420117   -1.359698
     16          8           6       12.642410    3.538673    3.651785
     17          1           6       11.729011    3.318327    3.469078
     18          1           6       13.062947    3.550856    2.791999
     19          8           6       -2.675457   13.892931   -5.248570
     20          1           6       -2.292815   14.510977   -4.625804
     21          1           6       -3.607689   13.879947   -5.031760
     22          1           6       -6.305747   11.830525    9.240795
     23          1           6        3.960934   17.071465   -1.081086
     24          8           6       -0.632863   12.107320   -6.619457
     25          1           6       -1.293037   12.721536   -6.298302
     26          1           6       -1.129554   11.325204   -6.859927
     27          8           6        0.262768    9.285303    8.683887
     28          1           6       -0.643030    8.992101    8.584918
     29          1           6        0.788214    8.558156    8.350128
     30          8           6       -0.128620    9.245337    5.332098
     31          1           6        0.788550    8.974735    5.374610
     32          1           6       -0.316087    9.595652    6.202942
     33          8           6        4.299153    2.244851   -4.643330
     34          1           6        3.842544    2.687485   -5.358743
     35          1           6        5.151748    2.677650   -4.598625
     36          8           6       -1.896719    7.740973   -3.845960
     37          1           6       -2.522449    8.412848   -4.116665
     38          1           6       -1.041536    8.163608   -3.925169
     39          8           6       -3.931766    3.134264   -2.310838
     40          1           6       -4.822488    3.024019   -1.978132
     41          1           6       -3.387002    3.186541   -1.525516
     42          8           6       -2.083169    6.412776   11.831512
     43          1           6       -1.861393    7.332192   11.684128
     44          1           6       -1.423153    6.103157   12.451793
     45          8           6        2.510720    1.787579    6.648410
     46          1           6        1.669809    1.681162    7.093131
     47          1           6        2.961116    2.469546    7.146704
     48          8           6       -2.044024   -1.060602   -2.785218
     49          1           6       -2.727406   -1.615403   -3.161273
     50          1           6       -1.223928   -1.461353   -3.073441
     51          1           6        9.843012   13.952035   -0.659366
     52          8           6        4.012224    3.945871    7.503419
     53          1           6        4.816193    3.525995    7.809310
     54          1           6        3.463848    4.012455    8.285136
     55          8           6       -6.211498    2.198905    6.506863
     56          1           6       -5.527217    2.792559    6.197722
     57          1           6       -5.907598    1.328177    6.250524
     58          8           6        0.429376   -1.538224    8.631234
     59          1           6        0.109872   -0.643781    8.512398
     60          1           6        0.738178   -1.564416    9.536878
     61          8           6        1.678820   -2.094702    1.350326
     62          1           6        1.130489   -1.837507    0.609101
     63          1           6        1.401673   -2.987651    1.555421
     64          8           6        8.516644    0.267074    3.521128
     65          1           6        7.625443    0.356044    3.183374
     66          1           6        8.651913    1.052522    4.051228
     67          8           6        3.704181   -5.107940    4.104204
     68          1           6        4.073635   -4.248204    4.305679
     69          8           6        3.443558    1.854454   12.175317
     70          1           6        2.944777    1.358374   12.824435
     71          1           6        3.681867    2.665495   12.624374
     72          8           6        5.338041    1.481653   -0.985455
     73          1           6        4.547525    2.020718   -0.958499
     74          1           6        5.187950    0.871525   -1.707570
     75          8           6        1.714053   11.369928    9.992247
     76          1           6        0.777168   11.562756   10.028255
     77          1           6        1.778680   10.597513    9.430615
     78          8           6       -5.445658   13.401659    0.430941
     79          1           6       -4.592874   13.160889    0.792910
     80          1           6       -5.467202   14.357218    0.482683
     81          8           6       -0.782024   12.495436   -1.742430
     82          1           6       -1.557228   11.937587   -1.678440
     83          1           6       -1.121997   13.387567   -1.673489
     84          8           6        9.384321    3.349550    7.450945
     85          1           6        9.866064    2.523040    7.418745
     86          1           6        9.819399    3.906233    6.805156
     87          8           6        8.397863    7.838436   -7.173745
     88          1           6        8.198000    7.023466   -7.634300
     89          8           6       -2.096022   -3.723879    2.459468
     90          1           6       -2.452898   -3.389341    1.636695
     91          1           6       -1.691022   -2.961503    2.872977
     92          8           6       -0.456976    1.076463   -8.285929
     93          1           6       -0.262660    2.013230   -8.316592
     94          1           6       -1.195683    1.004259   -7.681503
     95          1           6        2.022537    4.480056   13.249431
     96          8           6        5.996485    7.198180   -2.994639
     97          1           6        5.748742    7.767142   -3.723431
     98          1           6        5.269010    6.581367   -2.913685
     99          1           6       -0.102814    1.963100   12.704124
    100          8           6        1.206576   11.301700   -3.489187
    101          1           6        0.867710   11.702613   -4.289606
    102          1           6        0.551894   11.507554   -2.821919
    103          8           6       -1.531355   -0.453659    1.393587
    104          1           6       -1.206406   -0.832759    2.210241
    105          1           6       -1.247223    0.459914    1.423335
    106          8           6        5.803469    8.141294    4.101090
    107          1           6        5.336444    8.324267    3.285835
    108          1           6        5.625137    7.217587    4.277705
    109          8           6       -1.915090    5.269654   -7.109898
    110          1           6       -2.190717    5.375879   -6.199415
    111          1           6       -2.727641    5.107907   -7.589306
    112          8           6       -2.643575    0.200199    6.597396
    113          1           6       -2.639423   -0.459514    7.290934
    114          1           6       -3.527631    0.159427    6.232685
    115          8           6       10.381495   10.685424    0.009335
    116          1           6       10.723124   10.069768   -0.639117
    117          1           6       11.018586   11.399714    0.021064
    118          8           6        2.726422    3.024886   -6.857953
    119          1           6        1.802511    3.156979   -7.070487
    120          1           6        3.068899    2.507985   -7.587168
    121          8           6       -2.410095   17.338449    4.162977
    122          1           6       -2.769562   16.533913    3.789165
    123          8           6       -1.862733    2.493691   -0.222611
    124          1           6       -1.269416    1.974887   -0.765796
    125          1           6       -1.395856    2.603030    0.605824
    126          8           6        1.346718    5.116262   -4.757941
    127          1           6        0.428314    5.306095   -4.566290
    128          1           6        1.482367    5.455607   -5.642632
    129          8           6       -5.211705    7.916225    3.868014
    130          1           6       -6.031748    7.443025    4.008881
    131          1           6       -4.577580    7.235606    3.642457
    132          8           6        3.256763   13.662042    7.299164
    133          1           6        3.288175   14.218763    6.521149
    134          1           6        2.447859   13.915992    7.743479
    135          8           6       -2.834031    1.508083   -4.423902
    136          1           6       -1.899055    1.673384   -4.545270
    137          1           6       -3.151189    2.269234   -3.937803
    138          8           6       -3.286021   10.630424   12.185989
    139          1           6       -2.517532   10.176259   11.840461
    140          8           6        7.510152    9.658819    5.850468
    141          1           6        7.153092    9.879552    6.710711
    142          1           6        6.842650    9.102386    5.449152
    143          8           6        4.194110    5.964251   -0.132963
    144          1           6        3.662201    5.355142    0.379181
    145          1           6        3.727478    6.049857   -0.964323
    146          8           6        5.761090   -2.875312    3.345963
    147          1           6        6.157085   -2.647627    2.504785
    148          1           6        4.953719   -2.362120    3.377876
    149          8           6        7.576312    6.033596   -4.912862
    150          1           6        8.419693    6.329893   -5.255134
    151          1           6        7.420341    6.586613   -4.147305
    152          8           6        6.398246   13.246165   -2.675554
    153          1           6        6.689927   12.822210   -1.868450
    154          1           6        6.157251   14.132847   -2.407320
    155          8           6       -1.895969    4.832736   -3.384823
    156          1           6       -2.268897    5.713486   -3.422717
    157          1           6       -2.615257    4.280545   -3.078323
    158          8           6        2.158309   13.816154    2.754142
    159          1           6        2.441609   13.045053    2.262840
    160          1           6        2.921463   14.060997    3.277478
    161          8           6        3.928580    9.391959    8.841003
    162          1           6        3.506786    8.633978    8.436298
    163          1           6        3.995905   10.034608    8.134814
    164          1           6       13.255760    7.629554    4.420121
    165          1           6       11.184885    3.889552   -4.009925
    166          8           6       -4.277684   14.117558    7.675041
    167          1           6       -3.436865   14.482130    7.951343
    168          8           6       -4.334599    5.986831   -5.331905
    169          1           6       -4.122595    6.890913   -5.099695
    170          1           6       -5.179297    5.823099   -4.912489
    171          8           6       -9.031041    8.332198    0.022194
    172          1           6       -9.087022    7.907031   -0.833570
    173          1           6       -8.192863    8.794188    0.006265
    174          8           6        4.478309   13.515210    4.119868
    175          1           6        4.659619   12.591640    3.945575
    176          1           6        5.304082   13.862383    4.457213
    177          8           6        1.615726   13.480888   -5.526539
    178          1           6        2.243903   12.779860   -5.700280
    179          1           6        0.835865   13.232800   -6.023027
    180          8           6        1.806651    0.080309   -6.876506
    181          1           6        2.573752    0.315832   -7.398346
    182          1           6        1.163666   -0.221989   -7.517926
    183          8           6       -3.835047    0.566884   -0.788095
    184          1           6       -3.330513    0.126675   -1.472123
    185          1           6       -3.483225    1.456796   -0.765475
    186          8           6       -0.664780   12.286093    2.976075
    187          1           6       -0.181706   12.218613    2.152474
    188          1           6       -0.069539   12.748271    3.566254
    189          8           6       -5.609620    0.219686    2.649296
    190          1           6       -5.541871   -0.722480    2.494489
    191          1           6       -6.473803    0.456657    2.312748
    192          1           6        1.765338   11.612851   -8.242361
    193          8           6       -2.495596   11.079159    4.422445
    194          1           6       -1.744959   11.403689    3.924995
    195          1           6       -2.804982   10.322836    3.923959
    196          8           6       12.673504    5.654258    0.324276
    197          1           6       11.792196    5.313654    0.477634
    198          1           6       12.543855    6.400817   -0.260593
    199          8           6        9.689710    5.065375    0.630279
    200          1           6        9.579033    4.940743    1.572856
    201          1           6        9.387445    5.959211    0.469266
    202          8           6       11.826538    7.705399   -1.071316
    203          1           6       12.450047    8.430488   -1.112730
    204          1           6       11.129844    7.952961   -1.679233
    205          8           6       -0.503181    7.521699   -7.699598
    206          1           6       -1.066255    6.756891   -7.818965
    207          1           6        0.332711    7.160582   -7.404452
    208          8           6        4.364998   11.086950    0.714957
    209          1           6        3.575636   10.905295    0.204917
    210          1           6        4.612454   11.977263    0.465276
    211          8           6        6.779484    3.486917   -4.718692
    212          1           6        7.127309    4.370720   -4.837616
    213          1           6        7.500484    2.996350   -4.324060
    214          8           6       -6.939264    7.306230    8.642697
    215          1           6       -7.518217    6.930528    9.305943
    216          1           6       -6.540422    6.548342    8.215188
    217          8           6        1.772953    6.571974   -2.199210
    218          1           6        2.162347    5.722845   -2.407981
    219          1           6        1.559781    6.954064   -3.050561
    220          8           6        3.595459    4.753091   -3.082816
    221          1           6        3.915618    3.851640   -3.049396
    222          1           6        2.957701    4.754950   -3.796605
    223          1           6        6.860476   11.920893   -6.896429
    224          8           6       -0.140015    2.178205   -5.077792
    225          1           6        0.639960    1.623905   -5.052806
    226          1           6        0.167015    3.008217   -5.442547
    227          8           6        2.373889    1.393197    1.418437
    228          1           6        2.981285    1.966092    1.886512
    229          1           6        2.728743    0.513159    1.544309
    230          8           6        4.963925    8.151107   -5.708626
    231          1           6        5.514282    7.657910   -6.316983
    232          1           6        5.189351    9.067305   -5.869859
    233          8           6       -4.496063    4.267909    5.790156
    234          1           6       -3.539951    4.300133    5.757852
    235          1           6       -4.775723    4.570979    4.926344
    236          8           6        8.190120   -2.233417   -1.952718
    237          1           6        8.534204   -1.395940   -2.263316
    238          8           6        8.289702    4.784235    2.981490
    239          1           6        8.307415    5.211553    3.837830
    240          1           6        7.535399    5.170237    2.536224
    241          8           6       -7.065398    5.700913   -4.733065
    242          1           6       -7.495092    5.902488   -5.564306
    243          1           6       -7.089613    4.745732   -4.675827
    244          8           6        4.644325    3.254695    2.077765
    245          1           6        4.908309    2.786769    2.869971
    246          1           6        5.406045    3.787065    1.848424
    247          8           6        6.153219   -3.322324    6.443804
    248          1           6        5.480210   -2.693895    6.705280
    249          1           6        5.884026   -3.613690    5.572671
    250          8           6       -6.098476   10.640784   -4.451686
    251          1           6       -5.844453   11.444341   -3.997812
    252          1           6       -6.569129   10.942546   -5.228641
    253          8           6       -0.642787    1.139396   -2.148268
    254          1           6        0.229383    0.747800   -2.195202
    255          1           6       -1.236040    0.436447   -2.413119
    256          8           6        1.953960    0.192119   -4.032904
    257          1           6        1.898976   -0.098519   -4.943254
    258          1           6        2.678040    0.818109   -4.024155
    259          1           6        7.770067   -3.639512    3.126638
    260          8           6        2.799323   -0.704180   -1.706969
    261          1           6        2.510440   -0.526814   -2.602135
    262          1           6        2.001873   -0.643617   -1.181005
    263          8           6        0.855902   11.889499    0.532626
    264          1           6        0.162011   11.974294   -0.121253
    265          1           6        1.645612   12.193694    0.085351
    266          8           6        3.413254   11.534254   -5.795354
    267          1           6        3.898388   12.099846   -6.396173
    268          1           6        2.892243   10.969077   -6.365752
    269          8           6        0.517461   -2.720644    6.153638
    270          1           6        0.411291   -2.212576    6.957894
    271          1           6        1.220858   -3.338968    6.351479
    272          8           6        5.993566   10.974060   -4.853586
    273          1           6        6.084251   11.497736   -4.057488
    274          1           6        5.056549   10.993441   -5.048148
    275          8           6        5.252671   -1.900181   -1.291580
    276          1           6        4.400209   -1.552678   -1.553847
    277          1           6        5.886641   -1.288167   -1.665415
    278          8           6        4.554401   11.114702   11.074091
    279          1           6        3.814157   10.598058   10.755736
    280          1           6        4.165291   11.941854   11.358073
    281          8           6       -1.340499   -4.929558   -0.424121
    282          1           6       -0.430809   -4.636935   -0.368730
    283          1           6        0.239777   17.745115   -0.204618
    284          8           6        2.852256    2.261827    9.547328
    285          1           6        1.905363    2.348232    9.657597
    286          1           6        3.176028    2.037920   10.419836
    287          8           6        6.854959    2.821193    8.210864
    288          1           6        6.476153    1.953731    8.068565
    289          1           6        7.778971    2.652299    8.395003
    290          8           6        2.834558    2.521078   -1.541946
    291          1           6        2.102569    2.917794   -2.014218
    292          1           6        2.467217    2.274852   -0.693026
    293          8           6       -3.481566   -2.928397    5.224657
    294          1           6       -2.930350   -3.110422    4.463565
    295          1           6       -4.223868   -2.437938    4.871572
    296          8           6       -4.575516    3.033054    9.993807
    297          1           6       -4.345236    2.104656    9.957988
    298          1           6       -5.295506    3.077624   10.622980
    299          8           6       -0.990818    8.932503   11.261280
    300          1           6       -0.229817    8.716277   11.800128
    301          1           6       -0.627526    9.112762   10.394240
    302          8           6       10.625854    6.197886   -4.529551
    303          1           6       10.317014    7.089694   -4.369767
    304          1           6       10.007522    5.641344   -4.056096
    305          8           6       -5.340917   -0.029579    5.395543
    306          1           6       -5.989735   -0.730714    5.456173
    307          1           6       -5.263674    0.145470    4.457660
    308          8           6        7.770452   -0.341098    8.592815
    309          1           6        7.177668   -0.553342    9.313781
    310          1           6        7.533482   -0.955800    7.898395
    311          8           6        5.783543   -0.794733   10.450344
    312          1           6        5.081430   -1.113899    9.883420
    313          8           6        4.204389    5.915673   -9.342053
    314          1           6        4.872983    5.576410   -8.746977
    315          8           6        4.579146   11.377371    6.819013
    316          1           6        5.132426   11.757687    6.136757
    317          1           6        4.235366   12.131783    7.297459
    318          8           6        6.021173    9.514398   -8.372423
    319          8           6       -6.516775   -0.062988   -1.493125
    320          1           6       -5.676180    0.350986   -1.297528
    321          1           6       -6.336992   -1.002264   -1.452240
    322          1           6        7.668597    8.549996   12.000582
    323          8           6       -0.948091    1.695824    4.040442
    324          1           6       -0.042516    1.551219    4.314774
    325          1           6       -0.875498    2.089561    3.170998
    326          8           6        9.473538    2.722751   -0.892691
    327          1           6       10.111326    2.227801   -0.378411
    328          1           6        9.443690    3.583148   -0.474290
    329          8           6        1.133464   14.656474    9.796986
    330          1           6        1.014438   13.706863    9.779492
    331          8           6        5.610667   14.198585    0.620097
    332          1           6        5.825437   14.082701    1.545666
    333          1           6        6.391125   14.603265    0.241479
    334          8           6       -1.709562    8.440828    3.233220
    335          1           6       -1.785411    7.515103    3.464545
    336          1           6       -1.203745    8.826298    3.948618
    337          1           6       -9.868589    8.481422    1.538445
    338          8           6       11.195019    5.354434    6.116859
    339          1           6       11.467049    4.765821    5.412752
    340          1           6       12.008484    5.582142    6.567031
    341          8           6        1.113783    8.372581   12.897515
    342          1           6        1.507489    7.542032   13.164754
    343          1           6        1.617812    8.640897   12.129274
    344          8           6        4.329006   -0.972039    1.237396
    345          1           6        3.607203   -1.568936    1.434748
    346          1           6        4.647049   -1.255222    0.380140
    347          8           6        3.739919    9.640583   -3.182658
    348          1           6        3.619425    9.694122   -2.234582
    349          1           6        3.034643   10.176884   -3.544875
    350          8           6       -6.231453   -2.393936    0.570389
    351          1           6       -5.493950   -2.120101    0.025105
    352          8           6        6.382280   17.234970    2.299289
    353          1           6        7.153736   16.668385    2.307631
    354          8           6       -0.790904   -0.812352   -5.558481
    355          1           6       -1.674473   -1.155308   -5.692343
    356          1           6       -0.917570   -0.019788   -5.036916
    357          8           6        6.738278    2.666281   11.208025
    358          1           6        6.958778    1.962111   11.817743
    359          1           6        6.644168    2.229884   10.361305
    360          8           6       -3.445303   -2.124374    0.278882
    361          1           6       -3.439152   -2.293130   -0.663305
    362          1           6       -3.234576   -1.193966    0.357422
    363          8           6        2.482063    6.960904   -7.120141
    364          1           6        2.951019    7.599130   -6.582572
    365          1           6        3.045055    6.829938   -7.883109
    366          8           6       -1.647392    3.997943    5.498385
    367          1           6       -1.543861    3.099078    5.186045
    368          1           6       -1.157177    4.024434    6.320102
    369          8           6       -2.566351   16.602428    6.736497
    370          1           6       -1.768031   16.508207    7.256151
    371          8           6       12.505969   10.969232    1.851075
    372          1           6       11.834250   10.292482    1.767191
    373          1           6       12.015950   11.774330    2.018196
    374          8           6        7.183643   -3.533319    1.235003
    375          1           6        7.619508   -2.770347    0.855362
    376          1           6        6.990021   -4.096620    0.485714
    377          8           6        8.903230    4.602556   -2.859689
    378          1           6        7.968377    4.540709   -2.663583
    379          1           6        9.313692    3.965092   -2.275401
    380          8           6        2.874459    7.064563    7.346417
    381          1           6        3.440988    6.301898    7.229717
    382          1           6        2.912979    7.522832    6.506930
    383          8           6       -5.812023   12.384363    4.151510
    384          1           6       -5.080046   12.016102    3.656712
    385          1           6       -6.093674   13.140396    3.636419
    386          8           6       -3.040695    1.576313   -7.278326
    387          1           6       -3.054692    2.483098   -7.584558
    388          1           6       -3.311083    1.628405   -6.361588
    389          8           6        1.359604   -2.579973   -5.433248
    390          1           6        0.858374   -1.815521   -5.149322
    391          8           6        5.200659   10.831070    3.487150
    392          1           6        4.991271   10.703918    2.561828
    393          1           6        5.359161    9.948044    3.820878
    394          8           6        2.645955   16.424440    0.379571
    395          1           6        2.469480   16.686459    1.283139
    396          1           6        2.387490   15.503566    0.341898
    397          8           6        3.366517   14.379210   -3.471004
    398          1           6        4.034448   13.733495   -3.701551
    399          1           6        2.738546   14.342994   -4.192512
    400          8           6       -0.059343    2.731253    1.715678
    401          1           6        0.746647    2.215580    1.689347
    402          1           6        0.189559    3.583958    1.359065
    403          8           6       -5.667362    0.252613    9.084034
    404          1           6       -5.308566   -0.459731    8.554824
    405          8           6       11.240900    0.949997    0.490790
    406          1           6       11.977643    1.113553   -0.098016
    407          1           6       10.882607    0.111475    0.199690
    408          8           6        8.310315    1.446985   -6.128030
    409          1           6        7.796042    0.656886   -6.293859
    410          1           6        7.838496    2.141349   -6.587899
    411          8           6        0.928674   18.184719    2.334801
    412          1           6        0.666698   17.275667    2.480495
    413          8           6       -7.435942    3.892352    4.880202
    414          1           6       -6.895484    3.512307    5.572809
    415          1           6       -7.871397    3.141646    4.476407
    416          8           6        5.522009   16.509912    6.965929
    417          1           6        5.227796   16.593859    6.058943
    418          1           6        5.981853   15.670819    6.992373
    419          8           6        0.131901   -3.386121   -3.021976
    420          1           6        0.562930   -3.211548   -3.858618
    421          1           6        4.750351    0.442436   -7.576480
    422          8           6       -8.101786    7.488893    3.399210
    423          1           6       -9.034513    7.613259    3.223756
    424          1           6       -7.852821    8.249600    3.924161
    425          8           6       -3.847503    9.028812    6.458246
    426          1           6       -4.663469    8.960698    6.954020
    427          1           6       -4.083580    8.762273    5.569733
    428          8           6        9.088908   13.770013   -3.568453
    429          1           6        8.376429   13.151019   -3.408918
    430          8           6        5.811849    0.005517   -3.644794
    431          1           6        5.357479    0.758633   -4.022414
    432          1           6        6.703059    0.317196   -3.487214
    433          8           6       -7.997638    3.078023    8.548977
    434          1           6       -7.349138    3.777580    8.469593
    435          1           6       -7.532868    2.287624    8.274222
    436          8           6        8.060920    5.449615    8.500023
    437          1           6        8.795147    4.889470    8.248273
    438          1           6        7.318674    4.850601    8.580550
    439          8           6        5.566033    2.186372    4.926582
    440          1           6        5.454770    1.551102    5.633891
    441          1           6        5.923140    2.963676    5.356121
    442          8           6       -7.645337   11.592004    0.188114
    443          1           6       -7.239174   10.905879    0.717734
    444          1           6       -7.001903   12.300624    0.178953
    445          8           6        7.836780    8.186306   -1.190768
    446          1           6        7.457717    9.064501   -1.227078
    447          1           6        7.108932    7.601810   -1.402509
    448          8           6        9.147788    0.575673   -2.440537
    449          1           6        9.957505    0.528840   -2.948865
    450          1           6        9.183807    1.429798   -2.009951
    451          8           6       -6.638610    9.445292   -1.692214
    452          1           6       -6.820786    9.993842   -2.455194
    453          1           6       -6.621598    8.552530   -2.037059
    454          8           6        3.185001   -1.681112    9.728757
    455          1           6        2.932678   -0.868571   10.167326
    456          8           6       -5.292596   -2.550201    3.253561
    457          1           6       -5.671611   -2.708151    2.388904
    458          8           6        6.073889    5.981370    1.831028
    459          1           6        6.032840    6.914201    2.041677
    460          1           6        5.412034    5.859708    1.150309
    461          8           6       -1.391759   15.182824   -1.132072
    462          1           6       -1.472628   16.005615   -1.614470
    463          1           6       -1.435928   15.439347   -0.210943
    464          8           6        5.691849   13.738740    8.174806
    465          1           6        5.841619   14.127320    9.036668
    466          1           6        4.750605   13.833766    8.028994
    467          1           6       -5.898336    9.441121   10.697040
    468          8           6       10.576169   13.148668    2.367987
    469          1           6        9.720898   12.935382    2.741152
    470          1           6       10.471370   14.033347    2.017855
    471          8           6       -0.828649   -1.678237    3.962848
    472          1           6       -0.563034   -2.084391    4.787905
    473          1           6       -1.324577   -0.902890    4.225765
    474          8           6        2.957315    6.102866   12.142600
    475          1           6        3.599307    5.517747   12.544738
    476          1           6        3.451624    6.896254   11.936624
    477          8           6        0.419065   15.768043    3.197989
    478          1           6        0.524777   15.839189    4.146670
    479          1           6        0.986641   15.039189    2.947264
    480          8           6        1.671881   17.007311   -2.687890
    481          1           6        1.621733   16.062449   -2.543148
    482          1           6        0.985066   17.372349   -2.129979
    483          8           6       -3.818659    2.320352    2.836162
    484          1           6       -2.997820    1.929376    3.135484
    485          1           6       -4.386781    1.572766    2.650192
    486          8           6       -3.205663   14.633355    4.283988
    487          1           6       -3.200173   14.873741    5.210496
    488          1           6       -4.065410   14.912159    3.968811
    489          8           6        1.770892    5.516864    9.395733
    490          1           6        2.027697    6.161354    8.736251
    491          1           6        2.096396    5.875546   10.221339
    492          8           6        6.526529   11.199341    8.941020
    493          1           6        6.136341   11.906436    8.427207
    494          1           6        5.782274   10.771289    9.364208
    495          8           6        0.577655    9.530557    1.903580
    496          1           6       -0.328414    9.471673    2.206571
    497          1           6        0.642547   10.399975    1.508442
    498          8           6        0.986547   -1.271577   11.377997
    499          8           6        2.959427   13.737668   -0.449464
    500          1           6        3.727221   14.187530   -0.096833
[...]
 5544013977,11.1147022247,11.0740909576\H,3.8141570091,10.5980577469,10
 .755736351\H,4.1652913094,11.9418535233,11.3580732346\O,-1.3404985666,
 -4.9295578003,-0.424121201\H,-0.4308086038,-4.6369347572,-0.3687295914
 \H,0.239776805,17.7451152802,-0.2046179622\O,2.8522562981,2.2618267536
 ,9.5473279953\H,1.905362606,2.3482322693,9.6575965881\H,3.1760280132,2
 .0379195213,10.4198360443\O,6.8549585342,2.8211932182,8.2108640671\H,6
 .4761533737,1.9537312984,8.0685653687\H,7.7789711952,2.6522986889,8.39
 50033188\O,2.8345577717,2.5210783482,-1.5419458151\H,2.1025691032,2.91
 7794466,-2.014218092\H,2.4672174454,2.274851799,-0.693025589\O,-3.4815
 657139,-2.9283969402,5.2246570587\H,-2.9303500652,-3.1104221344,4.4635
 653496\H,-4.2238683701,-2.4379382133,4.8715715408\O,-4.5755157471,3.03
 30536366,9.993806839\H,-4.3452363014,2.1046564579,9.9579877853\H,-5.29
 55064774,3.0776240826,10.6229801178\O,-0.9908177853,8.9325027466,11.26
 12800598\H,-0.229817003,8.7162771225,11.8001279831\H,-0.6275262237,9.1
 127624512,10.3942403793\O,10.6258535385,6.1978859901,-4.5295505524\H,1
 0.3170137405,7.0896935463,-4.369767189\H,10.0075216293,5.6413435936,-4
 .0560956001\O,-5.3409166336,-0.0295789558,5.3955430984\H,-5.9897351265
 ,-0.7307143807,5.45617342\H,-5.2636737823,0.1454696506,4.4576601982\O,
 7.7704515457,-0.3410975933,8.5928153992\H,7.1776680946,-0.553342402,9.
 3137807846\H,7.5334820747,-0.9557997584,7.8983950615\O,5.7835431099,-0
 .7947329283,10.4503440857\H,5.0814299583,-1.1138988733,9.8834199905\O,
 4.2043886185,5.9156727791,-9.3420534134\H,4.872982502,5.5764102936,-8.
 7469768524\O,4.5791459084,11.3773708344,6.8190126419\H,5.1324262619,11
 .757686615,6.136756897\H,4.2353663445,12.1317825317,7.2974586487\O,6.0
 211730003,9.5143976212,-8.372423172\O,-6.5167746544,-0.0629879683,-1.4
 931250811\H,-5.6761798859,0.3509860933,-1.2975275517\H,-6.336991787,-1
 .0022636652,-1.4522404671\H,7.6685972214,8.549996376,12.0005817413\O,-
 0.9480906129,1.6958243847,4.0404424667\H,-0.0425164588,1.5512192249,4.
 3147735596\H,-0.8754982352,2.0895605087,3.1709976196\O,9.4735383987,2.
 7227511406,-0.892691195\H,10.1113262177,2.2278013229,-0.3784109056\H,9
 .4436903,3.5831475258,-0.4742901623\O,1.1334644556,14.6564741135,9.796
 9856262\H,1.0144380331,13.7068634033,9.7794923782\O,5.6106667519,14.19
 85845566,0.6200974584\H,5.8254365921,14.0827007294,1.5456662178\H,6.39
 11247253,14.6032648087,0.241479069\O,-1.7095621824,8.4408283234,3.2332
 19862\H,-1.785410881,7.5151033401,3.4645452499\H,-1.2037450075,8.82629
 776,3.9486181736\H,-9.8685894012,8.4814224243,1.538444519\O,11.1950187
 683,5.3544335365,6.1168589592\H,11.467048645,4.7658205032,5.4127521515
 \H,12.0084838867,5.5821418762,6.5670313835\O,1.1137827635,8.3725805283
 ,12.8975152969\H,1.5074887276,7.542031765,13.1647539139\H,1.6178120375
 ,8.6408967972,12.1292743683\O,4.3290057182,-0.9720390439,1.2373963594\
 H,3.6072032452,-1.568936348,1.4347476959\H,4.647049427,-1.2552222013,0
 .3801401854\O,3.7399189472,9.6405830383,-3.1826581955\H,3.6194250584,9
 .6941223145,-2.2345824242\H,3.0346434116,10.1768836975,-3.5448746681\O
 ,-6.2314534187,-2.3939361572,0.570389092\H,-5.493950367,-2.1201014519,
 0.0251045711\O,6.3822803497,17.2349700928,2.2992887497\H,7.1537356377,
 16.668384552,2.3076312542\O,-0.7909042239,-0.8123520017,-5.5584807396\
 H,-1.6744732857,-1.1553077698,-5.692343235\H,-0.9175699949,-0.01978762
 26,-5.0369157791\O,6.738278389,2.6662809849,11.2080249786\H,6.95877790
 45,1.9621111155,11.8177433014\H,6.6441679001,2.2298843861,10.361305236
 8\O,-3.4453029633,-2.1243739128,0.2788821757\H,-3.4391524792,-2.293129
 6825,-0.6633045673\H,-3.2345762253,-1.1939663887,0.3574215174\O,2.4820
 625782,6.9609036446,-7.1201405525\H,2.9510190487,7.5991301537,-6.58257
 24602\H,3.045055151,6.8299384117,-7.8831086159\O,-1.6473923922,3.99794
 29245,5.4983849525\H,-1.5438611507,3.0990784168,5.1860451698\H,-1.1571
 76733,4.0244340897,6.320101738\O,-2.5663511753,16.6024284363,6.7364969
 254\H,-1.7680312395,16.5082073212,7.2561507225\O,12.5059690475,10.9692
 316055,1.8510745764\H,11.8342504501,10.2924823761,1.7671909332\H,12.01
 59502029,11.7743301392,2.0181958675\O,7.1836428642,-3.5333189964,1.235
 003233\H,7.6195082664,-2.7703473568,0.8553615808\H,6.990020752,-4.0966
 200829,0.4857138693\O,8.9032297134,4.6025562286,-2.8596894741\H,7.9683
 766365,4.5407090187,-2.6635832787\H,9.3136920929,3.9650924206,-2.27540
 13538\O,2.8744587898,7.0645627975,7.3464174271\H,3.4409880638,6.301897
 5258,7.2297167778\H,2.912979126,7.5228319168,6.5069303513\O,-5.8120226
 86,12.3843631744,4.1515102386\H,-5.0800461769,12.0161018372,3.65671205
 52\H,-6.0936741829,13.1403961182,3.6364188194\O,-3.040694952,1.5763131
 38,-7.2783255577\H,-3.0546922684,2.4830975533,-7.5845584869\H,-3.31108
 33168,1.6284052134,-6.3615875244\O,1.3596037626,-2.5799734592,-5.43324
 80431\H,0.8583737016,-1.8155213594,-5.1493220329\O,5.2006592751,10.831
 0699463,3.4871504307\H,4.9912705421,10.7039175034,2.5618283749\H,5.359
 161377,9.9480438232,3.820877552\O,2.6459548473,16.4244403839,0.3795711
 1\H,2.4694795609,16.6864585876,1.2831389904\H,2.3874900341,15.50356578
 83,0.3418980539\O,3.3665168285,14.3792104721,-3.4710040092\H,4.0344476
 7,13.7334947586,-3.7015509605\H,2.7385456562,14.3429937363,-4.19251155
 85\O,-0.0593432039,2.7312526703,1.7156780958\H,0.7466472387,2.21557974
 82,1.6893466711\H,0.1895591021,3.5839583874,1.3590646982\O,-5.66736221
 31,0.2526131868,9.0840339661\H,-5.3085660934,-0.4597309232,8.554823875
 4\O,11.2409000397,0.9499970078,0.4907900691\H,11.977643013,1.113552928
 ,-0.0980162993\H,10.88260746,0.1114746779,0.1996899098\O,8.3103151321,
 1.4469854832,-6.1280303001\H,7.7960419655,0.6568859816,-6.2938585281\H
 ,7.8384962082,2.1413493156,-6.5878987312\O,0.9286743999,18.1847190857,
 2.3348014355\H,0.6666976213,17.2756671906,2.4804947376\O,-7.4359416962
 ,3.8923523426,4.8802018166\H,-6.8954844475,3.5123074055,5.5728087425\H
 ,-7.8713974953,3.1416459084,4.4764070511\O,5.5220093727,16.5099124908,
 6.9659290314\H,5.2277960777,16.5938587189,6.0589427948\H,5.9818525314,
 15.6708192825,6.9923729897\O,0.1319007576,-3.3861207962,-3.0219759941\
 H,0.5629301071,-3.2115476131,-3.8586182594\H,4.7503509521,0.4424356818
 ,-7.5764803886\O,-8.1017856598,7.4888930321,3.3992099762\H,-9.03451347
 35,7.6132588387,3.2237560749\H,-7.8528213501,8.2496004105,3.9241609573
 \O,-3.8475027084,9.0288124084,6.4582462311\H,-4.6634693146,8.960698127
 7,6.9540195465\H,-4.0835804939,8.7622728348,5.5697331429\O,9.088908195
 5,13.7700128555,-3.5684533119\H,8.3764286041,13.1510190964,-3.40891766
 55\O,5.8118486404,0.0055170469,-3.6447944641\H,5.3574786186,0.75863307
 71,-4.0224137306\H,6.7030591965,0.3171959221,-3.4872140884\O,-7.997637
 7487,3.0780234337,8.5489768982\H,-7.3491382599,3.777579546,8.469593048
 1\H,-7.5328679085,2.2876241207,8.274222374\O,8.0609197617,5.4496154785
 ,8.5000228882\H,8.7951469421,4.8894696236,8.2482728958\H,7.3186736107,
 4.8506007195,8.5805501938\O,5.5660328865,2.1863715649,4.9265823364\H,5
 .4547696114,1.5511021614,5.6338906288\H,5.923140049,2.9636764526,5.356
 1210632\O,-7.6453371048,11.5920038223,0.1881144047\H,-7.2391738892,10.
 9058790207,0.7177336812\H,-7.0019030571,12.3006238937,0.1789532006\O,7
 .8367795944,8.1863059998,-1.1907683611\H,7.4577174187,9.0645008087,-1.
 2270776033\H,7.1089324951,7.6018095016,-1.4025094509\O,9.1477880478,0.
 5756726265,-2.4405369759\H,9.9575052261,0.5288401842,-2.9488651752\H,9
 .183807373,1.4297983646,-2.0099513531\O,-6.638610363,9.4452924728,-1.6
 922135353\H,-6.8207855225,9.9938421249,-2.4551935196\H,-6.6215977669,8
 .5525302887,-2.0370590687\O,3.1850013733,-1.681112051,9.7287569046\H,2
 .9326784611,-0.8685706854,10.1673259735\O,-5.2925958633,-2.5502011776,
 3.2535614967\H,-5.6716113091,-2.7081508636,2.3889040947\O,6.0738887787
 ,5.9813699722,1.8310281038\H,6.0328402519,6.9142012596,2.0416769981\H,
 5.4120335579,5.8597078323,1.1503093243\O,-1.3917587996,15.1828241348,-
 1.1320716143\H,-1.4726282358,16.0056152344,-1.6144703627\H,-1.43592786
 79,15.4393472672,-0.2109434009\O,5.6918492317,13.7387399673,8.17480564
 12\H,5.8416194916,14.1273202896,9.0366678238\H,4.7506046295,13.8337659
 836,8.0289936066\H,-5.8983359337,9.4411211014,10.6970396042\O,10.57616
 9014,13.1486682892,2.3679871559\H,9.7208976746,12.9353818893,2.7411518
 097\H,10.4713697433,14.0333471298,2.0178554058\O,-0.8286491632,-1.6782
 368422,3.9628479481\H,-0.5630344152,-2.0843913555,4.7879052162\H,-1.32
 45767355,-0.9028900862,4.2257652283\O,2.9573149681,6.102865696,12.1426
 000595\H,3.5993070602,5.5177469254,12.5447378159\H,3.451624155,6.89625
 35858,11.9366235733\O,0.419065237,15.7680425644,3.1979894638\H,0.52477
 65779,15.8391885757,4.1466703415\H,0.9866405129,15.0391893387,2.947264
 1945\O,1.6718813181,17.0073108673,-2.6878900528\H,1.6217329502,16.0624
 485016,-2.5431475639\H,0.985065639,17.3723487854,-2.1299791336\O,-3.81
 86588287,2.3203518391,2.8361616135\H,-2.9978196621,1.9293761253,3.1354
 835033\H,-4.3867812157,1.572765708,2.6501920223\O,-3.2056632042,14.633
 3551407,4.2839884758\H,-3.2001729012,14.8737411499,5.2104959488\H,-4.0
 654096603,14.9121589661,3.9688105583\O,1.7708917856,5.5168638229,9.395
 7328796\H,2.0276966095,6.1613540649,8.7362508774\H,2.0963964462,5.8755
 464554,10.2213392258\O,6.5265288353,11.1993408203,8.9410200119\H,6.136
 341095,11.9064359665,8.4272069931\H,5.7822742462,10.7712888718,9.36420
 82214\O,0.5776554942,9.5305566788,1.9035795927\H,-0.3284136653,9.47167
 30118,2.2065713406\H,0.6425471306,10.399974823,1.5084421635\O,0.986546
 576,-1.2715767622,11.3779973984\O,2.9594266415,13.7376680374,-0.449463
 8145\H,3.7272212505,14.1875295639,-0.0968325436\H,2.9645419121,13.9499
 292374,-1.3828185797\O,-0.7794095874,12.5620651245,9.363650322\H,-1.28
 96282673,12.275223732,8.6062660217\H,-0.92905581,13.5063524246,9.41013
 24081\O,-0.1286393255,15.5073223114,-4.9628429413\H,0.5666546822,14.86
 49663925,-5.1048932076\O,-2.3228142262,-1.7503780127,9.1646671295\H,-1
 .4239054918,-1.7514380217,8.8357381821\H,-1.1658662558,9.174697876,-9.
 0662946701\O,-5.5597791672,15.3541603088,3.4411478043\H,-5.8461856842,
 15.2910289764,2.5299847126\O,7.2711343765,10.9470071793,-0.6973959804\
 H,6.6663393974,10.8621788025,0.03966574\H,8.1219587326,11.1136512756,-
 0.2917358279\O,-8.036154747,8.1951332092,-4.1125392914\H,-7.4885520935
 ,7.4237780571,-4.2587409019\O,-5.2350354195,12.5673732758,-2.324993133
 5\H,-5.317091465,12.5349979401,-1.3718662262\H,-5.6724944115,13.380908
 9661,-2.5760326385\O,9.1641521454,13.2939500809,6.7360925674\H,9.24277
 78244,12.4228658676,7.1250171661\O,6.6682653427,13.8661661148,5.743795
 3949\H,7.583486557,13.6957626343,5.9664301872\H,6.2096400261,13.848449
 707,6.5837845802\O,10.139957428,2.867631197,2.8624169827\H,10.28558158
 87,2.2143657207,2.1781144142\H,9.2712173462,3.2227470875,2.6742258072\
 H,-3.2983391285,-0.4058088362,10.1799554825\O,-3.0247955322,10.9294786
 453,-1.0629636049\H,-2.9871585369,10.3561029434,-0.2974209189\H,-3.905
 0145149,10.8005971909,-1.416285634\O,2.1315948963,8.871963501,-0.43580
 75559\H,1.4466158152,8.9141082764,0.2314704508\H,1.8529683352,8.168106
 0791,-1.0216265917\O,-5.8229107857,6.7807717323,-2.1721694469\H,-5.905
 9243202,5.8271784782,-2.1714622974\H,-5.9075365067,7.0297145844,-1.251
 7900467\O,-2.5138137341,11.7986536026,7.124569416\H,-2.6863238811,11.4
 452219009,6.2518954277\H,-3.1949546337,11.4158258438,7.6774916649\O,2.
 8941960335,9.4635591507,5.6919031143\H,3.2449045181,10.2729406357,6.06
 35719299\H,2.7404272556,9.6697540283,4.7699098587\H,5.9174628258,-1.88
 74028921,-4.0765628815\O,-2.4523625374,4.6488747597,9.6701135635\H,-2.
 5869858265,5.3268594742,10.3322658539\H,-3.2556273937,4.1287784576,9.6
 924114227\O,-3.0825192928,7.0577259064,-1.412514925\H,-4.0019469261,7.
 214015007,-1.6280585527\H,-2.6061463356,7.2917981148,-2.2090775967\O,1
 .2877390385,-4.8605866432,1.6665377617\H,2.0844795704,-5.1332559586,1.
 2114679813\H,-8.9812765121,5.0383815765,5.5819916725\H,-9.9434623718,6
 .168823719,5.2850193977\O,0.8311237097,8.2678852081,-4.5247249603\H,1.
 1542003155,8.3730545044,-5.4195957184\H,1.1525574923,9.0411643982,-4.0
 610966682\O,5.2061376572,0.649966836,7.2408919334\H,5.1644716263,-0.27
 0165652,6.9804077148\H,4.3007283211,0.8822518587,7.4470710754\O,-1.964
 2300606,15.866353035,1.4860050678\H,-2.4400818348,15.0382757187,1.5499
 221087\H,-1.3546559811,15.8504209518,2.2238385677\O,-5.9560155869,2.33
 57038498,-4.6112766266\H,-6.5097403526,2.1164295673,-3.8619174957\H,-5
 .0765714645,2.4207923412,-4.2430772781\O,3.0347747803,-1.5996365547,4.
 1160607338\H,2.4692337513,-1.7260622978,3.3542127609\H,3.0357525349,-0
 .6532928348,4.2598152161\O,0.8348129988,15.3613519669,6.2045917511\H,0
 .3594136536,14.5895137787,5.8971939087\H,0.2838312089,15.7215833664,6.
 8994913101\O,-6.3769021034,9.643321991,7.307071209\H,-5.8428778648,10.
 1662693024,7.9050474167\H,-6.6680254936,8.8990077972,7.8338308334\O,3.
 9079711437,-1.8291894197,6.7894320488\H,3.3052942753,-2.0246422291,6.0
 71928978\H,3.3546996117,-1.8148064613,7.5704030991\O,6.7530779839,0.57
 39191771,1.3665838242\H,6.4406304359,1.2462404966,0.7611144781\H,6.020
 1239586,-0.0365275778,1.4463685751\O,-7.7759680748,4.9209694862,1.9430
 977106\H,-7.837501049,5.7611260414,2.3976125717\H,-8.6247186661,4.5044
 622421,2.0926890373\O,9.9847688675,8.385725975,-2.9316210747\H,9.93312
 07275,9.0304641724,-3.6372258663\H,9.2279052734,8.57554245,-2.37722158
 43\H,9.6819629669,0.2299188077,8.1994829178\O,-6.4491438866,6.90889787
 67,0.4707838893\H,-6.6362395287,7.728413105,0.9286289215\H,-6.95914602
 28,6.2494039536,0.9411011338\O,7.1773042679,5.0826659203,12.3043003082
 \H,6.7358560562,5.6743688583,11.6950025558\H,7.0982761383,4.2188067436
 ,11.8996601105\O,-8.8951034546,1.8597806692,3.6937744617\H,-9.49533653
 26,2.5160770416,3.3398985863\H,-8.4720230103,1.4811723232,2.9231317043
 \H,0.2913512886,15.8525104523,8.7729330063\O,0.2966296673,-1.406649351
 1,-0.9910818338\H,0.4311187267,-2.2453784943,-1.4323055744\H,-0.634976
 2082,-1.3977172375,-0.7713932395\O,8.5836868286,12.6265745163,4.038222
 3129\H,8.92619133,12.4378414154,4.9118938446\H,7.8428339958,12.0290365
 219,3.9366459846\O,11.1249876022,7.8157725334,2.0100820065\H,12.036303
 5202,7.9869818687,2.2476165295\H,11.1797838211,7.2308940887,1.25433981
 42\O,-4.7061281204,9.2485017776,-7.4651350975\O,-4.2073073387,7.485137
 4626,10.0116930008\H,-4.7746152878,6.7143588066,9.9945240021\H,-4.1538
 558006,7.7232079506,10.9372730255\O,8.2622346878,15.3316392899,3.31146
 97933\H,8.2983036041,14.5162906647,3.8116075993\H,8.7159633636,15.1312
 75177,2.4928021431\O,5.8760585785,5.2132496834,-7.0867319107\H,5.78153
 9917,4.2714309692,-6.9443359375\H,6.0793533325,5.5676298141,-6.2210998
 535\O,10.4576482773,8.3691911697,9.2425327301\H,10.8907928467,7.924926
 281,8.513666153\H,10.1105632782,7.6600294113,9.7836923599\O,8.64633369
 45,9.6795864105,-5.1503801346\H,7.7152438164,9.8908376694,-5.218774318
 7\H,8.7445421219,8.8652801514,-5.6438298225\H,1.3613483906,17.91218566
 89,5.4793324471\O,-0.6432195902,1.3994145393,8.0275068283\H,-0.6041489
 244,2.3557338715,8.0148983002\H,-1.435565114,1.1850869656,7.5350799561
 \O,0.3708058,3.794958353,-2.2266850471\H,0.0041995626,4.6703276634,-2.
 1019392014\H,-0.1804723293,3.3977401257,-2.9008829594\O,-6.2282772064,
 12.73985672,6.7773509026\H,-5.3786592484,13.1116333008,7.014339447\H,-
 6.1251411438,12.4675216675,5.8655233383\H,-8.7739295959,11.3149766922,
 -1.1322295666\H,-9.0097112656,10.1299877167,-2.0444250107\H,4.16125965
 12,-4.4478597641,-2.215464592\O,-3.4560749531,8.9570169449,1.032850265
 5\H,-3.1861169338,8.3193378448,0.372001797\H,-2.9834887981,8.697625160
 2,1.8238055706\O,1.0985821486,-5.1944699287,4.9939846992\H,0.673313736
 9,-4.3400335312,5.0669093132\H,1.9598647356,-5.0029659271,4.6228365898
 \O,-5.878569603,4.8026270866,8.1966371536\H,-5.537156105,4.0222315788,
 8.6332740784\H,-5.3584218025,4.8768787384,7.3965344429\O,4.5484232903,
 4.0486979485,13.4854850769\H,5.4209213257,4.2085800171,13.1257390976\O
 ,3.4707214832,0.9727968574,4.0453944206\H,4.3094530106,1.3216414452,4.
 3471703529\H,2.8639571667,1.1517013311,4.7637691498\O,-4.6400814056,5.
 0627069473,2.7949411869\H,-4.5774517059,4.122590065,2.6261529922\H,-5.
 4322257042,5.3372173309,2.3330061436\H,-8.9881849289,10.9707126617,4.1
 563792229\O,4.6079292297,8.3504247665,1.6247955561\H,4.6359739304,9.11
 96699142,1.0558416843\H,4.2035675049,7.6691827774,1.0875495672\O,9.897
 0708847,7.642437458,4.6398887634\H,10.1356935501,7.5926890373,3.714245
 3194\H,10.2421665192,6.8347668648,5.0204267502\O,1.837247014,9.9139709
 473,-7.5763525963\H,0.8884006143,10.0365200043,-7.5462818146\H,1.96957
 05175,9.2233953476,-8.2258358002\O,-1.1432009935,13.7183771133,5.67577
 88658\H,-1.421066761,12.9464454651,6.1688766479\H,-1.8004143238,13.812
 0336533,4.9861907959\O,-5.969315052,9.6963920593,1.6763283014\H,-6.174
 9396324,9.2912597656,2.518835783\H,-5.1027750969,9.357208252,1.4520616
 531\O,8.1572160721,5.8967351913,5.6354131699\H,8.5034189224,6.78670501
 71,5.7012190819\H,7.9828448296,5.6395096779,6.5407657623\O,7.902733326
 ,15.416686058,-0.1936249435\H,7.5811486244,15.5495767593,-1.0853399038
 \O,9.0075969696,-0.8584700823,0.8287513256\H,8.2471466064,-0.277718573
 8,0.8547502756\H,9.2581863403,-0.9669588804,1.7461761236\O,4.212086677
 6,8.442073822,11.6494159698\H,4.860408783,8.883480072,12.1981172562\H,
 4.2910785675,8.8671913147,10.7954444885\O,-6.7070932388,6.5229897499,5
 .7846474648\H,-7.1929950714,5.791639328,5.4035210609\H,-7.3488206863,6
 .980237484,6.3281011581\H,-3.8907873631,-2.0823924541,8.4204921722\O,7
 .4681587219,8.8929405212,1.4980300665\H,8.3015098572,8.8044042587,1.96
 05456591\H,7.5237474442,8.2619276047,0.7804191709\O,-3.1166141033,13.0
 732831955,1.9670550823\H,-3.1254842281,13.6063623428,2.7620267868\H,-2
 .6341850758,12.283914566,2.212801218\O,-0.48591277,4.1025900841,7.9632
 525444\H,-1.2665559053,4.318007946,8.47356987\H,0.1647700667,4.7497706
 413,8.2352838516\O,-7.5365757942,9.9769582748,4.8105068207\H,-6.957612
 9913,10.6238288879,4.4072790146\H,-7.1843600273,9.8562879562,5.6923317
 909\O,-1.9851338863,5.905705452,3.6539440155\H,-2.7519869804,5.4287128
 448,3.3366949558\H,-1.5499984026,5.2932500839,4.2470607758\O,-1.077626
 8244,2.7397353649,10.916800499\H,-1.3792309761,3.5754864216,10.5607280
 731\H,-1.5319992304,2.0784862041,10.3947582245\O,4.1474289894,16.42833
 70972,4.7892379761\H,4.7271819115,16.5286197662,4.0342135429\H,3.45659
 58977,17.0758895874,4.6490302086\O,-4.116209507,8.8990907669,-4.845376
 0147\H,-4.8888087273,9.375579834,-4.5415997505\H,-4.232170105,8.833263
 3972,-5.7932434082\O,7.9733552933,-1.1765303612,5.7261714935\H,8.17047
 88208,-0.8107109666,4.8638772964\H,7.3728451729,-1.9003739357,5.548208
 2367\O,0.4059334397,3.7877335548,-8.4782762527\H,-0.4164655209,4.27454
 32854,-8.4243459702\H,0.7939445376,4.0633530617,-9.3087663651\O,-2.192
 492485,8.4585952759,8.5345630646\H,-2.740973711,8.5665273666,7.7575488
 091\H,-2.7751262188,8.0709314346,9.1876220703\O,-6.394118309,3.9651496
 41,-1.5762150288\H,-6.9922757149,3.6399161816,-2.2490172386\H,-6.96514
 65416,4.2296257019,-0.854958415\O,10.000497818,10.3759508133,6.9629364
 014\H,9.9324293137,9.7265768051,7.662873745\H,9.6124305725,9.947834968
 6,6.1998157501\O,-1.7987669706,9.8845071793,-7.2657227516\H,-1.3381844
 759,9.0496892929,-7.3504257202\H,-2.6912033558,9.6422252655,-7.0185613
 632\H,8.2150230408,11.8714513779,9.3653459549\\Version=ES64L-G16RevC.0
 1\HF=-634.0922232\RMSD=7.778e-09\RMSF=1.611e-03\Dipole=-22.3380826,-1.
 0797549,0.1823018\Quadrupole=957.5701776,-1034.4714118,76.9012342,-588
 .2850487,-94.5602271,298.1525096\PG=C01 [X(C1H483Cl1N1O241)]\\@


 IT MATTERS NOT HOW DEEP YOU PLOW,
 BUT HOW LONG YOU STAY IN THE FURROW.
 Job cpu time:       0 days  0 hours  0 minutes 29.1 seconds.
 Elapsed time:       0 days  0 hours  0 minutes 16.3 seconds.
 File lengths (MBytes):  RWF=     10 Int=      0 D2E=      0 Chk=      4 Scr=      1
 Normal termination of Gaussian 16 at Mon Feb  7 01:55:46 2022.
